2394
# CELL(abcABC):   18.58263    18.58263    59.46441    90.00000    90.00000    90.00000  Step:       25500  Bead:       0 positions{angstrom}  cell{angstrom}
       C  2.42594e+00  3.00467e+00  1.83527e+00
       H  3.30010e+00  2.85405e+00  2.43216e+00
       H  1.75742e+00  3.66832e+00  2.36045e+00
       H  2.75839e+00  3.40249e+00  8.90918e-01
       H  1.94620e+00  2.00061e+00  1.50424e+00
       C -5.06247e+00 -1.23137e+00 -1.58993e+01
       H -5.64270e+00 -9.82438e-01 -1.67865e+01
       H -5.29185e+00 -6.68574e-01 -1.50055e+01
       H -5.14841e+00 -2.30195e+00 -1.56935e+01
       H -4.03309e+00 -1.06115e+00 -1.61333e+01
       C -3.94460e+00 -5.36989e+00  8.99998e+00
       H -4.63780e+00 -4.97469e+00  9.72270e+00
       H -3.40837e+00 -4.51791e+00  8.56275e+00
       H -3.19417e+00 -5.83486e+00  9.56930e+00
       H -4.28153e+00 -6.17299e+00  8.35214e+00
       C -7.88024e-01 -2.37761e+00  2.05121e+01
       H -1.06321e+00 -3.35171e+00  2.07758e+01
       H  3.12236e-02 -2.40904e+00  1.97997e+01
       H -1.63138e+00 -1.93078e+00  1.99448e+01
       H -4.63047e-01 -1.77150e+00  2.13058e+01
       C  7.48731e-01 -8.64129e+00 -5.23116e+00
       H -1.85413e-01 -9.09069e+00 -4.86778e+00
       H  1.66724e+00 -9.19539e+00 -4.96377e+00
       H  6.46208e-01 -8.50542e+00 -6.31866e+00
       H  7.43143e-01 -7.57733e+00 -4.82556e+00
       C  3.18610e+00 -7.74187e+00 -1.07596e+01
       H  3.73753e+00 -8.62599e+00 -1.11053e+01
       H  2.31635e+00 -8.24912e+00 -1.02686e+01
       H  3.73787e+00 -7.04470e+00 -1.01100e+01
       H  2.66324e+00 -7.13888e+00 -1.15700e+01
       C  9.66680e+00 -7.58522e+00 -8.68274e+00
       H  9.61903e+00 -7.30904e+00 -7.66281e+00
       H  9.31855e+00 -8.56606e+00 -8.97202e+00
       H  9.01877e+00 -6.88830e+00 -9.10717e+00
       H  1.06133e+01 -7.37243e+00 -9.20635e+00
       C -1.12474e+00 -3.80180e+00  1.61078e+01
       H -5.69372e-01 -3.14613e+00  1.52738e+01
       H -1.31279e+00 -4.91285e+00  1.58546e+01
       H -4.35322e-01 -3.79104e+00  1.69107e+01
       H -2.01185e+00 -3.14692e+00  1.63796e+01
       C  9.65219e+00 -2.27409e+00  1.34463e+01
       H  1.04133e+01 -3.10610e+00  1.33908e+01
       H  9.93269e+00 -1.57530e+00  1.26650e+01
       H  8.71855e+00 -2.72749e+00  1.32502e+01
       H  9.74485e+00 -1.78109e+00  1.43897e+01
       C  6.19203e+00 -2.76076e+00  3.78787e+00
       H  6.68637e+00 -3.31171e+00  3.04315e+00
       H  5.16441e+00 -3.03262e+00  3.82347e+00
       H  6.64616e+00 -2.96894e+00  4.74443e+00
       H  6.19461e+00 -1.69808e+00  3.61577e+00
       C  1.33969e+00 -7.56387e+00  1.27944e+01
       H  1.16138e+00 -6.73455e+00  1.35063e+01
       H  4.26059e-01 -7.72781e+00  1.22942e+01
       H  2.10709e+00 -7.12049e+00  1.21160e+01
       H  1.73020e+00 -8.45283e+00  1.31731e+01
       C -5.66508e+00 -2.96293e+00  1.57019e+01
       H -6.47140e+00 -3.65251e+00  1.60011e+01
       H -4.79450e+00 -3.36910e+00  1.51504e+01
       H -6.32935e+00 -2.47224e+00  1.49958e+01
       H -5.57134e+00 -2.43919e+00  1.66263e+01
       C  1.04272e+01  3.18036e+00  1.84848e+01
       H  1.10371e+01  2.36611e+00  1.82413e+01
       H  9.86754e+00  2.74264e+00  1.92481e+01
       H  1.10119e+01  4.02028e+00  1.89014e+01
       H  9.77505e+00  3.42984e+00  1.77167e+01
       C -1.50546e+00 -7.65171e+00 -1.57440e+01
       H -5.36091e-01 -8.17172e+00 -1.58282e+01
       H -2.32215e+00 -8.19025e+00 -1.63829e+01
       H -1.69046e+00 -7.70980e+00 -1.45850e+01
       H -1.42202e+00 -6.58347e+00 -1.59890e+01
       C  4.24079e+00 -5.73375e+00 -1.67227e+01
       H  3.26959e+00 -6.09434e+00 -1.63682e+01
       H  4.96075e+00 -5.82000e+00 -1.58880e+01
       H  4.70537e+00 -6.28100e+00 -1.75637e+01
       H  4.11110e+00 -4.67638e+00 -1.68814e+01
       C  1.13279e+01 -7.00403e+00  9.47693e+00
       H  1.07015e+01 -6.76786e+00  1.03584e+01
       H  1.23012e+01 -6.56723e+00  9.57659e+00
       H  1.11663e+01 -8.10316e+00  9.38280e+00
       H  1.09144e+01 -6.58909e+00  8.54049e+00
       C  4.15399e-01 -8.46924e+00  3.51964e+00
       H -6.47486e-01 -8.54900e+00  3.94594e+00
       H  1.07329e+00 -8.29705e+00  4.29664e+00
       H  7.17991e-01 -9.37162e+00  3.01177e+00
       H  3.45482e-01 -7.61876e+00  2.86575e+00
       C  2.63675e+00  7.71183e+00 -1.18540e+01
       H  1.65951e+00  7.96605e+00 -1.14311e+01
       H  3.38539e+00  7.59528e+00 -1.11220e+01
       H  2.39178e+00  6.68160e+00 -1.23726e+01
       H  3.08888e+00  8.36354e+00 -1.25403e+01
       C  4.12863e-02  1.57256e+00 -1.27228e+01
       H  9.68910e-01  2.21138e+00 -1.26289e+01
       H -7.89590e-01  2.28964e+00 -1.25821e+01
       H  1.24819e-02  1.21728e+00 -1.37135e+01
       H  9.86050e-02  7.09737e-01 -1.19941e+01
       C  6.20601e+00  1.42594e+00  3.00813e+00
       H  5.24096e+00  1.74388e+00  2.58109e+00
       H  6.67673e+00  7.77238e-01  2.19599e+00
       H  6.85099e+00  2.27893e+00  3.24785e+00
       H  5.96028e+00  8.51569e-01  3.83476e+00
       C -9.32872e+00  6.55960e+00 -7.89953e+00
       H -9.48325e+00  7.44306e+00 -7.28587e+00
       H -9.55026e+00  6.78532e+00 -8.94037e+00
       H -8.39611e+00  6.04338e+00 -7.86992e+00
       H -1.02028e+01  5.96397e+00 -7.59235e+00
       C  5.72751e+00  3.83756e+00 -2.46947e+01
       H  5.76370e+00  3.57499e+00 -2.57241e+01
       H  6.25377e+00  3.13020e+00 -2.40352e+01
       H  6.18053e+00  4.78468e+00 -2.45126e+01
       H  4.74183e+00  3.70566e+00 -2.43808e+01
       C -4.24232e+00 -1.28297e+01  1.31660e+01
       H -5.18402e+00 -1.31369e+01  1.34917e+01
       H -4.20794e+00 -1.18674e+01  1.26969e+01
       H -3.60977e+00 -1.26456e+01  1.40778e+01
       H -3.85188e+00 -1.36404e+01  1.25819e+01
       C  4.90338e+00  5.90183e+00 -5.52340e+00
       H  5.14951e+00  6.72737e+00 -6.18433e+00
       H  3.95864e+00  5.47160e+00 -5.76841e+00
       H  5.79214e+00  5.29634e+00 -5.75876e+00
       H  4.86933e+00  6.26931e+00 -4.48882e+00
       C  1.24330e+01 -8.66398e+00  1.94113e+01
       H  1.15920e+01 -8.31342e+00  1.88565e+01
       H  1.23270e+01 -8.46852e+00  2.04586e+01
       H  1.23426e+01 -9.73649e+00  1.92959e+01
       H  1.33771e+01 -8.44603e+00  1.89850e+01
       C -7.12765e+00 -4.07887e+00 -1.50775e+01
       H -7.61981e+00 -4.53887e+00 -1.42140e+01
       H -6.29981e+00 -3.41624e+00 -1.47312e+01
       H -6.75250e+00 -4.82387e+00 -1.57630e+01
       H -7.90174e+00 -3.51595e+00 -1.56207e+01
       C  4.63539e+00 -4.08387e+00  6.76359e+00
       H  5.64084e+00 -4.02058e+00  7.08492e+00
       H  4.02233e+00 -4.38643e+00  7.65045e+00
       H  4.40951e+00 -3.08050e+00  6.36322e+00
       H  4.65183e+00 -4.76467e+00  5.89571e+00
       C  1.12600e+00  3.66610e+00  5.23584e+00
       H  1.89352e+00  3.81381e+00  5.98109e+00
       H  9.94156e-02  3.59282e+00  5.61277e+00
       H  1.06676e+00  4.45858e+00  4.56794e+00
       H  1.29909e+00  2.76989e+00  4.65451e+00
       C -2.16841e+00 -6.69475e+00 -9.81132e-01
       H -2.93088e+00 -6.78820e+00 -1.69251e+00
       H -1.49321e+00 -6.04003e+00 -1.41977e+00
       H -2.64564e+00 -6.18139e+00 -1.59131e-01
       H -1.73353e+00 -7.67648e+00 -6.77386e-01
       C  2.67879e+00  2.32872e-01 -8.76254e+00
       H  2.85019e+00 -3.42086e-01 -7.85769e+00
       H  3.04548e+00  1.24454e+00 -8.67639e+00
       H  3.20641e+00 -6.49261e-02 -9.67992e+00
       H  1.55484e+00  3.63703e-01 -8.98480e+00
       C -1.26394e+00  6.13569e+00  6.55185e+00
       H -4.83596e-01  6.46230e+00  5.85377e+00
       H -2.04887e+00  5.75398e+00  5.91117e+00
       H -9.48100e-01  5.38725e+00  7.27216e+00
       H -1.71153e+00  6.98424e+00  7.06256e+00
       C  2.10415e+00 -7.55301e+00 -1.44652e+01
       H  1.69707e+00 -8.35944e+00 -1.38041e+01
       H  1.98397e+00 -6.59891e+00 -1.40372e+01
       H  3.11429e+00 -7.67497e+00 -1.47353e+01
       H  1.54955e+00 -7.44574e+00 -1.54642e+01
       C -7.56400e+00 -6.56116e+00  1.62474e+01
       H -8.20245e+00 -6.00168e+00  1.69459e+01
       H -8.02214e+00 -6.40123e+00  1.53323e+01
       H -6.57612e+00 -6.05049e+00  1.61178e+01
       H -7.51207e+00 -7.59681e+00  1.65878e+01
       C  3.13728e+00 -3.62994e+00 -8.24326e+00
       H  2.13750e+00 -3.26690e+00 -8.41039e+00
       H  3.13133e+00 -4.05846e+00 -7.29509e+00
       H  3.50866e+00 -4.32764e+00 -8.99690e+00
       H  3.80100e+00 -2.74363e+00 -8.19756e+00
       C -2.75405e+00  1.36723e+00 -6.15199e-01
       H -3.62112e+00  1.63401e+00 -1.25121e+00
       H -2.79387e+00  2.85014e-01 -5.84278e-01
       H -1.77241e+00  1.65226e+00 -9.99902e-01
       H -3.05022e+00  1.86110e+00  2.77599e-01
       C  1.52868e+00  4.07531e+00 -1.46180e+01
       H  7.11787e-01  4.55251e+00 -1.50564e+01
       H  1.39477e+00  4.20087e+00 -1.35533e+01
       H  1.30016e+00  3.00937e+00 -1.47739e+01
       H  2.48736e+00  4.38705e+00 -1.49592e+01
       C -1.11608e+01  9.28829e-01 -1.64730e+01
       H -1.11011e+01  1.23182e-01 -1.56307e+01
       H -1.15938e+01  1.82939e+00 -1.61146e+01
       H -1.01578e+01  1.03959e+00 -1.68722e+01
       H -1.19121e+01  7.06498e-01 -1.72420e+01
       C -3.09278e-01 -5.36151e+00  1.04582e+01
       H -5.49071e-01 -5.75006e+00  1.14855e+01
       H  6.71977e-01 -5.75532e+00  1.00813e+01
       H -1.10624e+00 -5.64095e+00  9.85209e+00
       H -2.97987e-01 -4.23634e+00  1.04700e+01
       C -1.16779e+00  1.17755e+00 -9.33725e+00
       H -2.17514e+00  1.15122e+00 -9.77231e+00
       H -4.65478e-01  4.87256e-01 -9.80079e+00
       H -8.06214e-01  2.21847e+00 -9.08355e+00
       H -1.34108e+00  7.58872e-01 -8.31009e+00
       C  3.01397e+00 -1.49428e-01  1.14417e+01
       H  3.58899e+00 -7.95386e-01  1.07544e+01
       H  3.34189e+00 -4.10996e-01  1.24392e+01
       H  3.15117e+00  8.28066e-01  1.11251e+01
       H  1.90777e+00 -3.48784e-01  1.13259e+01
       C  1.19770e+00  8.08467e+00 -2.15178e+01
       H  1.99036e+00  7.44024e+00 -2.18519e+01
       H  1.81653e-01  7.79027e+00 -2.19232e+01
       H  1.16623e+00  8.07611e+00 -2.04516e+01
       H  1.24273e+00  9.10658e+00 -2.16756e+01
       C  6.29559e+00  7.22244e+00  1.79054e+01
       H  6.11573e+00  6.35466e+00  1.74149e+01
       H  5.34388e+00  7.63269e+00  1.82217e+01
       H  6.82299e+00  6.89249e+00  1.87798e+01
       H  6.90758e+00  8.00247e+00  1.73837e+01
       C -5.56580e+00  5.74292e+00  1.94321e+01
       H -5.87401e+00  5.37005e+00  2.04023e+01
       H -4.60085e+00  6.22613e+00  1.94714e+01
       H -5.64201e+00  4.84353e+00  1.87742e+01
       H -6.42298e+00  6.38329e+00  1.91170e+01
       C -3.57673e+00 -9.66578e-01  1.87379e+01
       H -3.75700e+00 -1.87161e+00  1.92518e+01
       H -2.61779e+00 -1.08267e+00  1.81257e+01
       H -4.46161e+00 -9.08249e-01  1.80600e+01
       H -3.47315e+00 -2.31703e-01  1.95850e+01
       C  9.01554e+00  4.04031e+00  1.22068e+01
       H  9.75045e+00  4.44309e+00  1.14749e+01
       H  9.45531e+00  3.58666e+00  1.30645e+01
       H  8.33726e+00  4.87334e+00  1.24171e+01
       H  8.41260e+00  3.25865e+00  1.17969e+01
       C  1.08739e+01 -1.14852e+01 -4.12891e+00
       H  1.07721e+01 -1.20622e+01 -5.04683e+00
       H  1.05488e+01 -1.04757e+01 -4.30096e+00
       H  1.04037e+01 -1.18235e+01 -3.21920e+00
       H  1.19251e+01 -1.15459e+01 -3.97961e+00
       C -3.33374e+00 -1.06080e+01  4.06193e+00
       H -2.98568e+00 -1.09749e+01  3.01359e+00
       H -2.49883e+00 -1.07192e+01  4.75460e+00
       H -3.52907e+00 -9.52635e+00  3.88334e+00
       H -4.22865e+00 -1.11601e+01  4.29286e+00
       C  5.30948e-01 -5.87417e+00  7.57641e-01
       H  1.58915e+00 -5.78705e+00  1.00578e+00
       H -6.57515e-02 -5.08810e+00  1.11994e+00
       H  2.72030e-01 -5.76493e+00 -3.24838e-01
       H  1.21808e-01 -6.83380e+00  1.06460e+00
       C  8.09628e+00  4.77426e+00  1.98548e+01
       H  7.97709e+00  3.71667e+00  1.98186e+01
       H  7.34627e+00  5.16467e+00  2.05984e+01
       H  9.14701e+00  5.03933e+00  1.99835e+01
       H  7.81814e+00  5.10620e+00  1.88718e+01
       C  1.46317e+00  6.50365e+00  1.75449e+01
       H  2.00791e+00  7.14938e+00  1.82212e+01
       H  2.09162e+00  5.53515e+00  1.74706e+01
       H  4.66307e-01  6.30038e+00  1.79452e+01
       H  1.52329e+00  7.00797e+00  1.65944e+01
       C -5.08445e+00  9.56141e+00 -1.32519e+01
       H -5.76964e+00  8.83449e+00 -1.27856e+01
       H -5.51047e+00  1.05441e+01 -1.32220e+01
       H -4.03291e+00  9.46224e+00 -1.28125e+01
       H -4.84327e+00  9.11368e+00 -1.41880e+01
       C  6.74952e+00 -9.10879e+00 -7.60241e+00
       H  6.08283e+00 -9.89470e+00 -7.24393e+00
       H  6.67692e+00 -8.96249e+00 -8.68499e+00
       H  6.55994e+00 -8.17355e+00 -7.15094e+00
       H  7.81260e+00 -9.41219e+00 -7.44969e+00
       C  7.16742e+00  8.28595e+00  1.43837e+01
       H  6.09184e+00  8.42062e+00  1.44947e+01
       H  7.43306e+00  7.56154e+00  1.51642e+01
       H  7.48987e+00  7.88645e+00  1.35024e+01
       H  7.77991e+00  9.20291e+00  1.44665e+01
       C -3.37897e+00  8.19173e+00  2.05787e+01
       H -3.65585e+00  9.16476e+00  2.01636e+01
       H -4.27930e+00  7.65808e+00  2.07978e+01
       H -2.77535e+00  7.55831e+00  1.99717e+01
       H -2.99066e+00  8.38736e+00  2.15996e+01
       C -9.50254e+00 -4.18825e+00 -7.82587e+00
       H -9.18743e+00 -4.40702e+00 -8.89319e+00
       H -9.61535e+00 -5.09750e+00 -7.28262e+00
       H -8.70516e+00 -3.64086e+00 -7.39730e+00
       H -1.04201e+01 -3.56722e+00 -7.82768e+00
       C -1.48658e+00 -3.44566e+00  6.48769e+00
       H -1.90708e+00 -4.40721e+00  6.74449e+00
       H -1.11715e+00 -2.95934e+00  7.41643e+00
       H -5.77384e-01 -3.48730e+00  5.87900e+00
       H -2.29452e+00 -2.78212e+00  6.19748e+00
       C -9.15698e+00  3.43811e+00 -2.44930e+01
       H -8.40300e+00  3.58343e+00 -2.52966e+01
       H -8.65269e+00  3.59756e+00 -2.35061e+01
       H -9.92747e+00  4.11907e+00 -2.47499e+01
       H -9.53934e+00  2.39334e+00 -2.46305e+01
       C -3.72405e+00  2.30864e-02 -6.68150e+00
       H -4.09136e+00 -9.28235e-02 -5.68175e+00
       H -4.49109e+00  6.73838e-02 -7.39591e+00
       H -3.19173e+00  9.80781e-01 -6.83279e+00
       H -2.92532e+00 -7.26061e-01 -6.87385e+00
       C -2.32716e+00  1.19117e+01  1.35328e+01
       H -2.93082e+00  1.21989e+01  1.26060e+01
       H -2.43772e+00  1.08351e+01  1.35967e+01
       H -1.27801e+00  1.22311e+01  1.35324e+01
       H -2.99023e+00  1.24051e+01  1.42456e+01
       C -3.33822e+00 -2.56635e+00 -8.95758e-01
       H -3.17870e+00 -1.98400e+00  1.36815e-02
       H -4.32889e+00 -2.72374e+00 -1.13161e+00
       H -3.06673e+00 -1.95756e+00 -1.80402e+00
       H -2.67340e+00 -3.41223e+00 -8.17019e-01
       C -6.03457e+00  7.33960e+00 -7.13324e-01
       H -7.14761e+00  7.44346e+00 -5.06314e-01
       H -5.51504e+00  8.27297e+00 -5.08142e-01
       H -5.56283e+00  6.51126e+00 -2.22075e-01
       H -5.76102e+00  7.37068e+00 -1.77232e+00
       C  6.64438e+00 -7.66883e+00 -1.28295e+01
       H  7.26918e+00 -7.90693e+00 -1.19879e+01
       H  5.65014e+00 -8.08105e+00 -1.25659e+01
       H  6.63605e+00 -6.60444e+00 -1.30593e+01
       H  6.99353e+00 -8.36418e+00 -1.36304e+01
       C -7.15963e+00 -9.56657e+00 -6.81416e+00
       H -6.84629e+00 -1.04705e+01 -7.30066e+00
       H -6.82501e+00 -8.65170e+00 -7.12630e+00
       H -8.24055e+00 -9.57273e+00 -6.90275e+00
       H -6.89090e+00 -9.65304e+00 -5.76165e+00
       C -4.99244e+00  8.07215e+00  1.62721e+01
       H -5.34638e+00  8.71492e+00  1.53832e+01
       H -3.98917e+00  8.47422e+00  1.66547e+01
       H -5.78908e+00  8.07226e+00  1.69987e+01
       H -4.71616e+00  7.07350e+00  1.58556e+01
       C -4.27382e+00  1.81084e+00  3.77396e+00
       H -5.22616e+00  2.10434e+00  3.34500e+00
       H -4.09895e+00  7.87818e-01  3.68748e+00
       H -3.37912e+00  2.24971e+00  3.32291e+00
       H -4.30457e+00  2.04547e+00  4.83442e+00
       C  1.16112e+00  5.37523e+00 -1.94126e+01
       H  1.34773e+00  4.41328e+00 -1.88128e+01
       H  2.15446e-01  5.32386e+00 -1.99843e+01
       H  8.53166e-01  6.19882e+00 -1.86778e+01
       H  2.08321e+00  5.71705e+00 -1.98770e+01
       C  8.74425e+00  9.93535e-01 -3.25443e+00
       H  9.78142e+00  1.04259e+00 -3.29879e+00
       H  8.16658e+00  7.01681e-01 -4.11671e+00
       H  8.65309e+00  3.31463e-01 -2.40956e+00
       H  8.39554e+00  2.03459e+00 -2.97629e+00
       C -4.29684e+00 -5.20944e+00  4.54860e+00
       H -4.38471e+00 -4.87473e+00  5.64586e+00
       H -4.17921e+00 -6.25959e+00  4.34925e+00
       H -5.19195e+00 -4.82519e+00  4.09098e+00
       H -3.52261e+00 -4.62798e+00  4.11249e+00
       C -9.19559e+00 -9.77186e+00 -1.12704e+00
       H -9.48833e+00 -8.65860e+00 -1.02145e+00
       H -8.14890e+00 -9.77833e+00 -1.37448e+00
       H -9.21574e+00 -1.01693e+01 -7.00509e-02
       H -9.95517e+00 -1.03591e+01 -1.64883e+00
       C -6.01266e+00  2.61417e+00 -2.05914e+01
       H -6.61396e+00  2.05531e+00 -2.12357e+01
       H -5.46699e+00  2.03071e+00 -1.99158e+01
       H -5.21524e+00  3.22716e+00 -2.10692e+01
       H -6.62641e+00  3.35329e+00 -2.00865e+01
       C -5.98945e+00 -5.70752e+00 -8.05460e+00
       H -5.62643e+00 -5.34978e+00 -9.02197e+00
       H -6.76857e+00 -5.06908e+00 -7.74385e+00
       H -6.46556e+00 -6.71578e+00 -8.07823e+00
       H -5.11245e+00 -5.61657e+00 -7.35860e+00
       C -9.95905e+00 -2.29823e+00 -1.29608e+01
       H -1.08369e+01 -2.99186e+00 -1.31874e+01
       H -9.27415e+00 -2.94494e+00 -1.24617e+01
       H -9.63872e+00 -2.11611e+00 -1.39326e+01
       H -1.00487e+01 -1.41874e+00 -1.22226e+01
       C -2.31281e-01 -2.53369e+00  1.18163e+00
       H -1.27336e+00 -2.79116e+00  1.12940e+00
       H  9.32612e-02 -2.02666e+00  2.17812e-01
       H -1.81447e-01 -1.71766e+00  1.96574e+00
       H  3.36883e-01 -3.45949e+00  1.44513e+00
       C  4.67384e+00 -7.88929e+00  5.55813e+00
       H  3.61296e+00 -8.17402e+00  5.68357e+00
       H  5.05605e+00 -7.89238e+00  6.58743e+00
       H  5.32121e+00 -8.57447e+00  5.10226e+00
       H  4.67379e+00 -6.89275e+00  5.05199e+00
       C  5.19664e+00  5.42985e+00  1.12378e+01
       H  4.89912e+00  6.44964e+00  1.08722e+01
       H  4.44251e+00  5.09686e+00  1.19826e+01
       H  5.08659e+00  4.78526e+00  1.02642e+01
       H  6.20050e+00  5.28328e+00  1.15770e+01
       C -1.06137e+01 -9.90847e+00  2.40596e+00
       H -1.02938e+01 -9.86640e+00  3.44832e+00
       H -1.04224e+01 -1.08978e+01  2.00524e+00
       H -1.16379e+01 -9.52634e+00  2.40923e+00
       H -9.98347e+00 -9.32180e+00  1.75515e+00
       C -1.95264e+00 -7.71169e+00  1.70337e+01
       H -2.54743e+00 -8.31606e+00  1.76579e+01
       H -1.59237e+00 -6.83261e+00  1.75876e+01
       H -9.95059e-01 -8.17601e+00  1.68397e+01
       H -2.43811e+00 -7.35105e+00  1.61824e+01
       C  1.06486e+01 -6.95488e+00  4.21807e+00
       H  1.06518e+01 -6.79875e+00  5.31559e+00
       H  9.92623e+00 -6.28345e+00  3.73071e+00
       H  1.16754e+01 -6.89502e+00  3.87405e+00
       H  1.03255e+01 -7.97305e+00  3.85976e+00
       C  8.32779e+00 -5.85847e+00  6.39508e+00
       H  7.55426e+00 -6.10846e+00  7.07562e+00
       H  9.16807e+00 -5.51767e+00  6.98809e+00
       H  8.70103e+00 -6.78814e+00  5.88469e+00
       H  7.97964e+00 -5.17589e+00  5.65536e+00
       C -2.43280e+00 -1.46436e+00 -1.25151e+01
       H -1.83786e+00 -1.27456e+00 -1.16189e+01
       H -2.01608e+00 -9.57662e-01 -1.34231e+01
       H -2.49561e+00 -2.57855e+00 -1.25045e+01
       H -3.35262e+00 -9.65106e-01 -1.23197e+01
       C  8.21622e+00 -9.41451e+00  7.38909e+00
       H  7.86513e+00 -8.95436e+00  8.32321e+00
       H  8.04083e+00 -9.03097e+00  6.38429e+00
       H  9.31076e+00 -9.59533e+00  7.42199e+00
       H  7.77704e+00 -1.04578e+01  7.38838e+00
       C -3.31699e+00 -3.38929e+00  1.21438e+01
       H -2.26094e+00 -3.48825e+00  1.24305e+01
       H -3.64312e+00 -2.47084e+00  1.18764e+01
       H -3.56937e+00 -4.01061e+00  1.12876e+01
       H -3.82325e+00 -3.75700e+00  1.30515e+01
       C  7.30613e+00  8.60197e-01  1.76497e+01
       H  7.95061e+00  1.78244e+00  1.79328e+01
       H  6.23962e+00  1.04672e+00  1.80469e+01
       H  7.30722e+00  6.46115e-01  1.65929e+01
       H  7.76926e+00 -6.67547e-02  1.80803e+01
       C -7.78943e+00  3.90993e+00 -1.17575e+01
       H -7.96379e+00  3.78220e+00 -1.28264e+01
       H -6.74252e+00  3.53693e+00 -1.17057e+01
       H -7.90309e+00  4.93506e+00 -1.15021e+01
       H -8.48264e+00  3.34229e+00 -1.12124e+01
       C  6.28105e+00 -3.79085e+00 -1.98218e+01
       H  6.01061e+00 -4.35580e+00 -2.07472e+01
       H  5.46287e+00 -3.24974e+00 -1.94585e+01
       H  6.83847e+00 -4.42273e+00 -1.90381e+01
       H  6.91922e+00 -2.95868e+00 -2.00527e+01
       C  8.93415e+00  3.87770e+00 -5.53288e+00
       H  9.10418e+00  4.21511e+00 -4.48412e+00
       H  9.58130e+00  3.09424e+00 -5.83428e+00
       H  7.84087e+00  3.70380e+00 -5.72097e+00
       H  9.13379e+00  4.76553e+00 -6.16150e+00
       C -5.27530e+00  5.48470e+00 -7.45869e+00
       H -4.43382e+00  5.69269e+00 -8.15096e+00
       H -4.89110e+00  4.76384e+00 -6.84029e+00
       H -5.61726e+00  6.28459e+00 -6.88933e+00
       H -6.22706e+00  5.17129e+00 -7.98673e+00
       C  2.47603e+00 -6.63473e-01  1.08865e+00
       H  3.45970e+00 -2.91791e-01  6.47280e-01
       H  2.67009e+00 -1.13045e+00  2.02486e+00
       H  1.72974e+00  1.40301e-01  1.28526e+00
       H  2.00100e+00 -1.31038e+00  4.13517e-01
       C -4.37012e+00 -8.01511e+00 -1.02517e+01
       H -3.89943e+00 -8.99624e+00 -1.03814e+01
       H -3.50644e+00 -7.32026e+00 -1.02146e+01
       H -5.18077e+00 -7.83594e+00 -1.09487e+01
       H -4.85983e+00 -7.91425e+00 -9.32192e+00
       C -1.03870e+01 -5.32896e+00 -1.53044e+01
       H -1.06027e+01 -4.40482e+00 -1.47939e+01
       H -9.41750e+00 -5.77664e+00 -1.48969e+01
       H -1.12008e+01 -5.93278e+00 -1.50060e+01
       H -1.03818e+01 -5.24590e+00 -1.63722e+01
       C  7.59009e+00  7.06680e+00 -2.43260e+01
       H  6.76881e+00  7.72229e+00 -2.39574e+01
       H  7.67353e+00  6.23022e+00 -2.35807e+01
       H  7.28505e+00  6.53006e+00 -2.52446e+01
       H  8.59051e+00  7.51256e+00 -2.44118e+01
       C  2.01641e+00 -3.46398e+00  3.89405e+00
       H  1.22557e+00 -3.95673e+00  3.34587e+00
       H  1.65812e+00 -3.50576e+00  4.91723e+00
       H  2.88142e+00 -4.13952e+00  3.77199e+00
       H  2.19992e+00 -2.46859e+00  3.54731e+00
       C  3.23125e+00 -6.68496e+00  2.68623e+00
       H  2.96883e+00 -5.66580e+00  2.23647e+00
       H  2.32990e+00 -7.24904e+00  2.48566e+00
       H  4.09747e+00 -7.04604e+00  2.08954e+00
       H  3.46317e+00 -6.54847e+00  3.73912e+00
       C -7.19947e+00  2.04708e-01 -1.06020e+01
       H -7.19580e+00 -8.46272e-01 -1.07840e+01
       H -7.18052e+00  4.35285e-01 -9.56217e+00
       H -6.41562e+00  5.65702e-01 -1.11793e+01
       H -8.05462e+00  5.59567e-01 -1.11011e+01
       C -1.04047e+00  6.38930e+00 -1.23534e+01
       H -1.44662e+00  5.98999e+00 -1.32624e+01
       H -1.82214e+00  6.70655e+00 -1.17067e+01
       H -4.11849e-01  5.69517e+00 -1.18315e+01
       H -3.91677e-01  7.24550e+00 -1.24973e+01
       C -1.84025e-01  1.21429e+00 -2.32813e+01
       H -4.92804e-01  2.18928e+00 -2.28664e+01
       H  6.67250e-01  1.32385e+00 -2.39476e+01
       H  8.95786e-02  5.46459e-01 -2.24808e+01
       H -1.06828e+00  7.66753e-01 -2.38624e+01
       C -7.28528e-01 -1.53714e+00  1.05757e+01
       H -7.01811e-01 -3.95694e-01  1.06341e+01
       H -1.33502e+00 -1.99190e+00  1.13487e+01
       H -1.19592e+00 -1.78181e+00  9.62399e+00
       H  3.03045e-01 -1.82296e+00  1.06678e+01
       C  9.18994e+00  1.08769e+01 -4.63825e+00
       H  8.63092e+00  1.00818e+01 -5.12330e+00
       H  8.74299e+00  1.13151e+01 -3.77278e+00
       H  1.01480e+01  1.04960e+01 -4.36938e+00
       H  9.36282e+00  1.17337e+01 -5.40266e+00
       C  4.53889e-01  1.35247e+00 -5.93538e+00
       H -1.44558e-01  2.16745e+00 -6.33837e+00
       H  1.52659e+00  1.56082e+00 -5.91005e+00
       H  2.31091e-01  1.48511e+00 -4.89080e+00
       H  2.09151e-01  3.42551e-01 -6.24576e+00
       C -4.23929e+00  2.07224e+00 -1.32667e+01
       H -3.15984e+00  2.04891e+00 -1.36795e+01
       H -4.35361e+00  1.08365e+00 -1.27486e+01
       H -4.48774e+00  2.81047e+00 -1.24562e+01
       H -4.94606e+00  2.29314e+00 -1.40315e+01
       C  3.82553e+00 -9.16499e+00  1.67880e+01
       H  3.79788e+00 -9.02105e+00  1.56742e+01
       H  2.73690e+00 -9.20602e+00  1.71532e+01
       H  4.06142e+00 -1.01820e+01  1.68050e+01
       H  4.30231e+00 -8.35437e+00  1.74011e+01
       C -6.35520e+00  1.42723e+00 -2.03399e+00
       H -5.59719e+00  2.04584e+00 -1.66165e+00
       H -6.13085e+00  4.53884e-01 -1.75479e+00
       H -7.34626e+00  1.78227e+00 -1.61911e+00
       H -6.33443e+00  1.46210e+00 -3.07049e+00
       C -1.04323e+01  2.20287e+00 -2.10726e+01
       H -1.06396e+01  1.33981e+00 -2.04318e+01
       H -9.28358e+00  2.32104e+00 -2.10249e+01
       H -1.07939e+01  1.89342e+00 -2.20364e+01
       H -1.07994e+01  3.12225e+00 -2.07027e+01
       C  6.34437e+00 -3.72236e+00 -2.78718e+00
       H  6.13378e+00 -4.59114e+00 -2.22634e+00
       H  7.38322e+00 -3.87257e+00 -3.08079e+00
       H  5.64399e+00 -3.54783e+00 -3.57125e+00
       H  6.30601e+00 -2.90328e+00 -2.01869e+00
       C  5.41352e+00 -2.80253e+00 -1.52542e+01
       H  5.21856e+00 -2.90313e+00 -1.63455e+01
       H  4.44293e+00 -2.51777e+00 -1.47845e+01
       H  5.92301e+00 -3.74568e+00 -1.48696e+01
       H  6.21133e+00 -2.03852e+00 -1.51258e+01
       C -5.10221e+00  2.52616e+00 -9.04504e+00
       H -4.26088e+00  3.26508e+00 -9.03314e+00
       H -5.11429e+00  1.96409e+00 -8.12621e+00
       H -6.01298e+00  2.93863e+00 -9.43720e+00
       H -4.73475e+00  1.76821e+00 -9.73466e+00
       C -9.99691e+00  4.82210e+00  1.55003e+01
       H -9.87874e+00  5.01475e+00  1.44469e+01
       H -9.05208e+00  4.87589e+00  1.60660e+01
       H -1.06777e+01  5.52309e+00  1.58888e+01
       H -1.03995e+01  3.86492e+00  1.56854e+01
       C -6.26543e+00 -5.69424e-01  4.94456e+00
       H -7.12638e+00 -5.61841e-01  5.53591e+00
       H -5.57414e+00  1.61774e-01  5.42352e+00
       H -5.73622e+00 -1.58988e+00  4.97707e+00
       H -6.54322e+00 -3.66091e-01  3.89587e+00
       C -8.50144e+00 -6.91356e+00 -1.20227e+01
       H -9.21962e+00 -7.02325e+00 -1.11758e+01
       H -9.10265e+00 -7.22110e+00 -1.29852e+01
       H -8.06994e+00 -5.85981e+00 -1.20009e+01
       H -7.56436e+00 -7.42233e+00 -1.17783e+01
       C -6.31728e+00 -5.14988e+00  1.25863e+01
       H -5.19905e+00 -5.28892e+00  1.24728e+01
       H -6.73727e+00 -4.18775e+00  1.23383e+01
       H -6.59348e+00 -5.88329e+00  1.18028e+01
       H -6.42105e+00 -5.47486e+00  1.36195e+01
       C  4.46038e+00 -1.02826e+01  8.30925e+00
       H  4.55086e+00 -1.09492e+01  9.25131e+00
       H  5.42780e+00 -1.00249e+01  7.86802e+00
       H  3.77278e+00 -1.06583e+01  7.55698e+00
       H  4.07546e+00 -9.26105e+00  8.69805e+00
       C -3.13207e+00  2.37346e+00 -4.01309e+00
       H -3.03550e+00  3.30540e+00 -3.54853e+00
       H -2.20165e+00  1.81303e+00 -4.30713e+00
       H -3.77583e+00  1.62558e+00 -3.54694e+00
       H -3.71360e+00  2.59915e+00 -4.94503e+00
       C  2.38306e+00  3.16370e+00 -3.45652e+00
       H  2.56169e+00  2.30154e+00 -4.07445e+00
       H  2.35948e+00  2.79857e+00 -2.38271e+00
       H  3.24171e+00  3.92681e+00 -3.54584e+00
       H  1.39748e+00  3.55092e+00 -3.59296e+00
       C -1.32380e+00 -1.07600e+01 -1.81892e+01
       H -1.39125e+00 -1.08384e+01 -1.92724e+01
       H -1.74290e+00 -1.16206e+01 -1.76657e+01
       H -3.43522e-01 -1.04439e+01 -1.78927e+01
       H -1.92577e+00 -9.85701e+00 -1.79046e+01
       C -1.00992e+01 -2.27155e+00 -1.71414e+01
       H -9.82560e+00 -1.51387e+00 -1.78129e+01
       H -1.10799e+01 -2.50821e+00 -1.73993e+01
       H -9.57240e+00 -3.16061e+00 -1.73566e+01
       H -1.00362e+01 -2.05990e+00 -1.60871e+01
       C -2.87089e-01  5.25119e+00  1.04780e+01
       H -4.75658e-01  5.80049e+00  9.59740e+00
       H -1.51949e-01  6.01137e+00  1.12656e+01
       H -1.01871e+00  4.51892e+00  1.06598e+01
       H  6.62330e-01  4.75884e+00  1.03910e+01
       C -9.36704e+00 -3.76920e-02  3.53372e+00
       H -9.39515e+00  1.03747e+00  3.60314e+00
       H -1.03038e+01 -4.83218e-01  3.43735e+00
       H -8.83676e+00 -3.89301e-01  2.63347e+00
       H -8.94407e+00 -4.57677e-01  4.51464e+00
       C  5.70555e+00 -1.89295e+00 -1.16781e+01
       H  5.61383e+00 -2.88158e+00 -1.20130e+01
       H  6.02007e+00 -1.24262e+00 -1.24752e+01
       H  4.67701e+00 -1.62577e+00 -1.13916e+01
       H  6.46115e+00 -1.76460e+00 -1.08335e+01
       C  4.64724e-02  2.83381e-01 -1.61522e+01
       H -6.28411e-01 -5.20274e-01 -1.57707e+01
       H  3.18615e-01  2.97200e-02 -1.71311e+01
       H -5.63760e-01  1.15613e+00 -1.61750e+01
       H  9.46827e-01  4.47818e-01 -1.56293e+01
       C -8.06191e-02 -4.56575e+00 -2.16505e+01
       H  9.94514e-01 -4.20335e+00 -2.16665e+01
       H -5.68896e-01 -4.31959e+00 -2.26069e+01
       H -1.26266e-01 -5.67343e+00 -2.16021e+01
       H -5.81535e-01 -3.98630e+00 -2.09324e+01
       C  1.24574e+01 -9.22366e+00  6.48892e+00
       H  1.24915e+01 -8.39446e+00  5.77629e+00
       H  1.33541e+01 -9.19564e+00  7.03537e+00
       H  1.16485e+01 -8.96090e+00  7.20749e+00
       H  1.22325e+01 -1.01956e+01  6.02218e+00
       C -6.03482e+00 -6.79823e+00 -2.01812e+01
       H -6.05265e+00 -5.76589e+00 -1.96238e+01
       H -6.42098e+00 -6.58677e+00 -2.11959e+01
       H -4.93900e+00 -7.11281e+00 -2.02145e+01
       H -6.62910e+00 -7.59261e+00 -1.97127e+01
       C  5.65765e-01  8.80114e+00  1.50549e+01
       H -1.76796e-01  8.12822e+00  1.55065e+01
       H  6.89849e-01  9.79037e+00  1.55482e+01
       H  1.50403e+00  8.27245e+00  1.51010e+01
       H  2.79212e-01  8.92413e+00  1.39827e+01
       C  1.04826e+01 -1.15130e+01  1.36072e+01
       H  1.01911e+01 -1.15736e+01  1.46241e+01
       H  9.90272e+00 -1.07151e+01  1.31510e+01
       H  1.15888e+01 -1.13427e+01  1.34689e+01
       H  1.01668e+01 -1.24806e+01  1.30753e+01
       C  8.75391e+00  2.06619e+00  7.19508e-01