6144
# CELL(abcABC): 1000.00000  1000.00000  1000.00000    90.00000    90.00000    90.00000  Step:        5760  Bead:       0 positions{angstrom}  cell{angstrom}
       O -2.16998e+01 -1.70235e+01  8.69131e+00
       H -2.15401e+01 -1.65187e+01  7.85621e+00
       H -2.22836e+01 -1.64472e+01  9.17181e+00
       O  2.49127e+01 -5.92098e-01 -5.42701e+00
       H  2.52205e+01 -1.44787e+00 -5.07441e+00
       H  2.50799e+01 -1.24321e-02 -4.68776e+00
       O  7.86101e+00  2.64076e+01  2.59987e+00
       H  7.02410e+00  2.62834e+01  3.11105e+00
       H  8.23467e+00  2.55454e+01  2.81239e+00
       O  2.22158e+01  1.43340e+01  6.28172e+00
       H  2.22200e+01  1.40156e+01  5.35143e+00
       H  2.12982e+01  1.43123e+01  6.57384e+00
       O -1.85322e+01  1.15029e+00 -3.14806e+00
       H -1.93188e+01  1.32569e+00 -2.55178e+00
       H -1.81213e+01  3.65831e-01 -2.79429e+00
       O -1.35973e+01 -2.19765e+01 -6.61319e+00
       H -1.29261e+01 -2.13199e+01 -6.37083e+00
       H -1.33901e+01 -2.22653e+01 -7.49715e+00
       O  5.78422e+00 -4.06631e+00  7.08200e-01
       H  6.11327e+00 -3.15295e+00  8.88102e-01
       H  6.24970e+00 -4.19956e+00 -1.58318e-01
       O -6.56851e+00  1.94628e+01 -1.66753e+01
       H -6.87486e+00  1.88165e+01 -1.73855e+01
       H -7.32369e+00  2.00175e+01 -1.64918e+01
       O  9.97071e+00  8.11625e+00 -2.22905e+01
       H  9.22644e+00  7.81733e+00 -2.28469e+01
       H  1.05089e+01  7.32986e+00 -2.22213e+01
       O  1.39450e+00  2.16437e+01 -2.43124e+00
       H  1.01796e+00  2.10647e+01 -1.72566e+00
       H  2.22072e+00  2.18665e+01 -1.96393e+00
       O  1.36791e+01 -1.10714e+01 -8.17510e+00
       H  1.37547e+01 -1.01689e+01 -7.75817e+00
       H  1.41301e+01 -1.09979e+01 -9.01246e+00
       O -3.84551e+00 -3.99376e+00  6.62043e+00
       H -4.45775e+00 -3.56001e+00  6.00966e+00
       H -3.24743e+00 -4.52388e+00  6.08509e+00
       O  2.37464e+01 -1.19046e+01  1.00416e+01
       H  2.34939e+01 -1.19529e+01  9.09942e+00
       H  2.44449e+01 -1.12509e+01  1.00982e+01
       O -2.24863e+01  1.22546e+01 -7.16231e+00
       H -2.20468e+01  1.14651e+01 -7.47898e+00
       H -2.24602e+01  1.22313e+01 -6.15473e+00
       O -2.63053e+00 -1.49533e+01  1.46837e+01
       H -2.79793e+00 -1.40330e+01  1.49092e+01
       H -1.94310e+00 -1.52278e+01  1.52840e+01
       O -4.05444e+00 -1.42966e+01  5.56349e+00
       H -4.26537e+00 -1.52288e+01  5.53157e+00
       H -3.32687e+00 -1.41712e+01  4.93401e+00
       O -2.39222e+01  4.51038e+00  1.17769e+01
       H -2.36946e+01  3.65758e+00  1.22229e+01
       H -2.46793e+01  4.81745e+00  1.21855e+01
       O  8.47503e+00 -1.05629e+00 -2.53149e+01
       H  7.60221e+00 -1.48137e+00 -2.55430e+01
       H  8.36945e+00 -1.03968e-01 -2.54943e+01
       O -2.50481e+01 -1.19753e+01  6.40526e+00
       H -2.46882e+01 -1.17078e+01  5.56154e+00
       H -2.59032e+01 -1.15579e+01  6.41432e+00
       O  1.41017e+01  1.63184e+01  1.53116e+01
       H  1.36975e+01  1.61622e+01  1.61679e+01
       H  1.40650e+01  1.72696e+01  1.51979e+01
       O -1.62695e+01 -1.26340e+01  2.22197e+00
       H -1.67135e+01 -1.31761e+01  1.57630e+00
       H -1.60188e+01 -1.17972e+01  1.79175e+00
       O -6.96767e+00 -1.93959e+00  6.61840e+00
       H -6.39451e+00 -2.35845e+00  7.29179e+00
       H -7.67389e+00 -2.59476e+00  6.43923e+00
       O -7.90369e+00 -6.99654e+00  1.55111e+01
       H -7.06493e+00 -7.46491e+00  1.53401e+01
       H -8.03861e+00 -7.06460e+00  1.64726e+01
       O  1.70069e+01  1.63853e+01  1.51711e+01
       H  1.71709e+01  1.72083e+01  1.46841e+01
       H  1.60400e+01  1.62750e+01  1.51126e+01
       O -1.18707e+01  4.14794e+00  1.59675e+01
       H -1.21856e+01  3.29225e+00  1.61638e+01
       H -1.26815e+01  4.69861e+00  1.59331e+01
       O -2.26588e+00  6.83245e+00  2.65582e+01
       H -1.37916e+00  6.44734e+00  2.65295e+01
       H -2.40818e+00  7.25865e+00  2.56753e+01
       O  1.28533e+01  2.46494e+00 -1.95179e+01
       H  1.29604e+01  3.44137e+00 -1.95437e+01
       H  1.19137e+01  2.27913e+00 -1.93659e+01
       O  1.43714e+01 -2.35242e+00 -3.76744e+00
       H  1.51805e+01 -2.55965e+00 -3.26134e+00
       H  1.40441e+01 -1.45280e+00 -3.54659e+00
       O -1.96658e+01  1.65826e+01  5.84596e+00
       H -1.95171e+01  1.75065e+01  6.11521e+00
       H -2.04565e+01  1.61854e+01  6.23840e+00
       O -1.24503e+01 -2.37779e+01 -1.81462e+00
       H -1.16392e+01 -2.42248e+01 -1.49472e+00
       H -1.21184e+01 -2.34188e+01 -2.65318e+00
       O -7.98743e+00  5.35014e-01  7.80482e+00
       H -7.73082e+00 -3.05375e-01  7.30565e+00
       H -7.47063e+00  1.23419e+00  7.38207e+00
       O  1.95957e+01  1.44018e+01  1.17093e+01
       H  1.99805e+01  1.52511e+01  1.14010e+01
       H  2.03583e+01  1.38656e+01  1.19289e+01
       O -1.07810e+01  1.61971e+01 -1.80649e+01
       H -1.16382e+01  1.59395e+01 -1.77335e+01
       H -1.04361e+01  1.69837e+01 -1.75994e+01
       O -7.92772e+00 -4.45230e+00  7.30296e+00
       H -7.71334e+00 -5.08307e+00  6.65280e+00
       H -8.70651e+00 -4.78901e+00  7.78501e+00
       O  7.62581e+00  1.97543e+01  4.25784e+00
       H  8.14625e+00  2.02228e+01  3.55631e+00
       H  8.32727e+00  1.95616e+01  4.91544e+00
       O -2.54083e+01 -4.61884e+00 -1.08437e+01
       H -2.47577e+01 -3.95804e+00 -1.11980e+01
       H -2.61830e+01 -4.07940e+00 -1.08753e+01
       O -3.26930e+00 -2.44733e+01  4.90643e+00
       H -3.95453e+00 -2.46842e+01  5.55468e+00
       H -2.96618e+00 -2.53422e+01  4.54172e+00
       O  6.11478e+00  3.12604e+00 -1.71180e+01
       H  6.97812e+00  3.33719e+00 -1.75105e+01
       H  5.78784e+00  2.42031e+00 -1.76500e+01
       O -6.67808e-01  1.26803e+01  4.15852e+00
       H -7.52810e-01  1.28513e+01  5.11836e+00
       H  1.07270e-01  1.31372e+01  3.90062e+00
       O  1.26965e+00  2.83551e-01  1.61323e+01
       H  3.21397e-01  4.46276e-01  1.59636e+01
       H  1.53593e+00  6.03080e-01  1.70416e+01
       O -1.15518e+01 -1.79615e+01  9.24934e+00
       H -1.17723e+01 -1.78780e+01  8.32392e+00
       H -1.15392e+01 -1.70517e+01  9.48833e+00
       O -1.25807e+01  1.42099e+01 -6.25399e+00
       H -1.33078e+01  1.48642e+01 -6.15226e+00
       H -1.25115e+01  1.39500e+01 -7.17284e+00
       O  1.37664e+01  4.31693e+00 -1.67236e+01
       H  1.45130e+01  4.72264e+00 -1.63180e+01
       H  1.41502e+01  3.46507e+00 -1.69644e+01
       O -8.87812e+00  4.35829e-01 -9.34358e+00
       H -8.22193e+00 -2.68288e-01 -9.55333e+00
       H -8.78927e+00  6.40547e-01 -8.36077e+00
       O  1.33309e+01 -5.57651e+00  2.69599e+01
       H  1.35810e+01 -4.74906e+00  2.64876e+01
       H  1.36196e+01 -5.56639e+00  2.78512e+01
       O -2.06003e+01 -9.14326e+00  2.02089e+01
       H -2.15241e+01 -9.36134e+00  2.00128e+01
       H -2.04073e+01 -8.50239e+00  1.95329e+01
       O  2.57169e+01  7.04654e+00 -8.00723e+00
       H  2.50230e+01  7.60381e+00 -8.37823e+00
       H  2.60701e+01  7.64381e+00 -7.30591e+00
       O  1.04613e+01 -1.80203e+01 -1.75094e+01
       H  1.06639e+01 -1.87483e+01 -1.68879e+01
       H  1.07473e+01 -1.82805e+01 -1.83531e+01
       O -1.46241e+01  7.74938e+00  5.22805e+00
       H -1.53032e+01  7.24572e+00  4.74469e+00
       H -1.45129e+01  7.39159e+00  6.13175e+00
       O -5.35390e+00  2.46119e+01 -8.81129e-01
       H -4.59051e+00  2.46361e+01 -1.49559e+00
       H -4.99755e+00  2.50163e+01 -1.06986e-01
       O -1.90594e+00  8.30597e+00  5.76000e+00
       H -1.26920e+00  8.15210e+00  6.41856e+00
       H -2.64374e+00  7.70056e+00  5.89308e+00
       O  1.46229e+01  1.09068e+01  8.56743e+00
       H  1.40194e+01  1.02053e+01  8.74117e+00
       H  1.49201e+01  1.12090e+01  9.44705e+00
       O -1.82628e+00 -1.62968e+01  1.70564e+01
       H -1.09007e+00 -1.64245e+01  1.76724e+01
       H -2.48166e+00 -1.69894e+01  1.72294e+01
       O  1.80246e+01 -1.55994e+01  1.26477e+01
       H  1.75591e+01 -1.62981e+01  1.22455e+01
       H  1.72839e+01 -1.51048e+01  1.29544e+01
       O  1.86064e+01  4.80269e+00 -1.29472e+01
       H  1.91916e+01  4.83266e+00 -1.36937e+01
       H  1.76917e+01  4.65016e+00 -1.33008e+01
       O  1.23069e+01  1.56743e+01  2.04635e+01
       H  1.25303e+01  1.56139e+01  1.94885e+01
       H  1.31799e+01  1.53622e+01  2.07991e+01
       O  6.75546e+00  2.33385e+01  1.87518e+00
       H  7.43931e+00  2.39520e+01  1.58595e+00
       H  6.19262e+00  2.37444e+01  2.57099e+00
       O -1.52979e+01 -3.65319e+00 -8.10893e+00
       H -1.58608e+01 -4.41652e+00 -8.16095e+00
       H -1.57927e+01 -3.02359e+00 -8.61199e+00
       O  5.94365e-01  1.05182e+01 -5.47666e+00
       H  2.55746e-01  1.13519e+01 -4.99888e+00
       H  7.63906e-01  1.07699e+01 -6.41140e+00
       O -1.21060e+01  4.81052e+00 -5.78875e+00
       H -1.30779e+01  4.91700e+00 -5.68363e+00
       H -1.19250e+01  5.23270e+00 -6.62166e+00
       O -2.29335e-01 -9.17925e+00  1.64565e+01
       H -2.01535e-01 -9.39961e+00  1.73716e+01
       H -1.05147e+00 -8.68783e+00  1.63067e+01
       O  3.92449e+00  1.96774e+01  1.47385e+01
       H  4.81520e+00  2.00418e+01  1.48059e+01
       H  3.99945e+00  1.90359e+01  1.40116e+01
       O -2.30561e+01 -1.52708e+01  4.01857e+00
       H -2.24770e+01 -1.53633e+01  4.81030e+00
       H -2.37591e+01 -1.46663e+01  4.14115e+00
       O  2.11083e+01  1.81006e+00  1.51217e+01
       H  2.05589e+01  1.09679e+00  1.54862e+01
       H  2.04672e+01  2.36466e+00  1.46542e+01
       O -7.05714e+00  6.52738e+00 -3.18701e+00
       H -6.14216e+00  6.58495e+00 -2.89501e+00
       H -7.01284e+00  6.69807e+00 -4.15579e+00
       O -7.88825e-02  1.97440e+00  8.56846e+00
       H  6.38661e-01  1.29463e+00  8.57709e+00
       H -8.27772e-01  1.40796e+00  8.66917e+00
       O  2.18704e+01  1.15386e+01  1.78354e+00
       H  2.15684e+01  1.17909e+01  8.99127e-01
       H  2.11528e+01  1.10591e+01  2.20566e+00
       O  8.26717e+00 -6.71133e-01  2.23892e+01
       H  7.52251e+00 -1.22798e+00  2.22111e+01
       H  7.93657e+00  1.91587e-01  2.27843e+01
       O  7.52791e+00  5.96257e+00 -2.11410e+01
       H  6.72407e+00  6.15418e+00 -2.06360e+01
       H  8.22488e+00  6.05593e+00 -2.04842e+01
       O  1.18354e+01 -2.33866e+01 -3.45549e+00
       H  1.25766e+01 -2.39750e+01 -3.54125e+00
       H  1.10466e+01 -2.38071e+01 -3.81867e+00
       O -2.01428e+01 -8.21536e+00 -5.36522e+00
       H -1.94249e+01 -8.57733e+00 -4.86940e+00
       H -2.02397e+01 -8.72248e+00 -6.15145e+00
       O -1.09584e+01  1.19376e+01  6.46233e+00
       H -1.03851e+01  1.12850e+01  6.07478e+00
       H -1.18154e+01  1.16304e+01  6.17589e+00
       O -9.95899e+00 -2.02554e+01 -9.87538e+00
       H -9.69420e+00 -1.96033e+01 -1.05300e+01
       H -9.78704e+00 -2.11081e+01 -1.02966e+01
       O -2.79080e+00  8.00497e+00 -1.04768e+01
       H -2.82231e+00  8.06182e+00 -9.52329e+00
       H -3.66256e+00  7.78786e+00 -1.08202e+01
       O  2.84682e-01  2.54627e+01  1.36975e+01
       H -4.62727e-01  2.58118e+01  1.30926e+01
       H  6.14156e-01  2.62948e+01  1.40363e+01
       O -2.07108e+00 -1.08998e+01  7.49652e+00
       H -2.21752e+00 -1.08066e+01  6.54404e+00
       H -2.82327e+00 -1.05059e+01  8.01264e+00
       O -1.70501e+01 -3.41274e-01  1.55010e+00
       H -1.67393e+01 -9.03377e-01  7.97839e-01
       H -1.64088e+01  3.79469e-01  1.55546e+00
       O -4.72465e+00  1.67950e+01 -2.05595e+01
       H -4.06907e+00  1.74732e+01 -2.07427e+01
       H -4.44304e+00  1.65192e+01 -1.96736e+01
       O -2.27492e+00 -1.33356e+01  3.38457e+00
       H -1.69966e+00 -1.39759e+01  2.95824e+00
       H -3.12484e+00 -1.33298e+01  2.90847e+00
       O  3.78693e+00  2.38885e+00  2.31529e+01
       H  3.53188e+00  2.92658e+00  2.39433e+01
       H  3.00309e+00  2.57813e+00  2.25597e+01
       O -1.05110e+00 -4.99521e+00  2.09222e+01
       H -4.93433e-01 -4.25690e+00  2.12109e+01
       H -5.81000e-01 -5.74622e+00  2.12371e+01
       O -3.40647e+00  1.38037e+01  1.46612e+01
       H -3.43032e+00  1.37792e+01  1.36846e+01
       H -4.18670e+00  1.32677e+01  1.49617e+01
       O -1.00294e+01  8.45296e+00  1.61674e+01
       H -1.05378e+01  7.76753e+00  1.57000e+01
       H -9.64342e+00  8.88445e+00  1.54117e+01
       O  1.99542e+01  1.27812e+01 -4.98478e+00
       H  1.94392e+01  1.20288e+01 -4.61657e+00
       H  1.96385e+01  1.29695e+01 -5.84323e+00
       O  1.23834e+01  2.57762e+01  3.23671e+00
       H  1.16987e+01  2.58921e+01  2.57818e+00
       H  1.22604e+01  2.64649e+01  3.83778e+00
       O  3.90618e+00  1.04580e+01  1.12680e+01
       H  4.66047e+00  1.09368e+01  1.16318e+01
       H  4.06150e+00  1.04718e+01  1.03397e+01
       O -4.08000e+00  1.67298e+01  1.55076e+01
       H -4.66550e+00  1.66174e+01  1.62633e+01
       H -3.85520e+00  1.58104e+01  1.52028e+01
       O  3.00040e-01 -1.49798e+01 -2.39343e+01
       H  6.48499e-01 -1.58686e+01 -2.40387e+01
       H  3.27721e-01 -1.47325e+01 -2.29686e+01
       O -1.48012e+01 -5.94392e+00  8.05527e+00
       H -1.57262e+01 -6.14420e+00  8.27313e+00
       H -1.47981e+01 -5.06457e+00  7.66275e+00
       O  6.61806e+00  3.57524e+00 -2.73271e+00
       H  6.48378e+00  3.61673e+00 -1.77158e+00
       H  7.08570e+00  4.44576e+00 -2.80161e+00
       O -9.98902e+00  2.51933e+01 -5.74436e+00
       H -9.95758e+00  2.49828e+01 -6.66930e+00
       H -9.03831e+00  2.52523e+01 -5.47044e+00
       O  1.99036e+01  4.03028e+00  1.36645e+01
       H  2.06770e+01  4.46752e+00  1.33431e+01
       H  1.93928e+01  4.73965e+00  1.40909e+01
       O -1.22220e+01  1.01246e+01 -2.38258e+00
       H -1.21524e+01  1.07117e+01 -3.14212e+00
       H -1.23901e+01  1.06575e+01 -1.60862e+00
       O  5.59882e+00 -1.62680e+01  1.02580e+01
       H  4.78460e+00 -1.61720e+01  1.07201e+01
       H  5.47292e+00 -1.57256e+01  9.47229e+00
       O -8.88352e+00  1.81765e+01 -3.71424e+00
       H -8.93335e+00  1.88305e+01 -4.46505e+00
       H -9.78034e+00  1.79226e+01 -3.45647e+00
       O -5.54936e+00  2.20910e+01 -1.21407e+01
       H -4.73888e+00  2.26113e+01 -1.18735e+01
       H -6.24611e+00  2.27073e+01 -1.23887e+01
       O -6.98920e+00  2.66031e+00  6.42309e+00
       H -6.58722e+00  2.49343e+00  5.52630e+00
       H -6.45659e+00  3.36323e+00  6.89947e+00
       O  2.22096e+01 -8.01355e+00  1.14103e+01
       H  2.23024e+01 -8.75321e+00  1.19579e+01
       H  2.13159e+01 -7.69042e+00  1.16616e+01
       O  9.13359e+00 -3.14821e+00 -1.78873e+01
       H  9.88687e+00 -3.73247e+00 -1.80279e+01
       H  9.44839e+00 -2.40774e+00 -1.74333e+01
       O -2.44380e+01 -1.00258e+01  2.59469e-01
       H -2.40745e+01 -9.75281e+00 -6.34183e-01
       H -2.53370e+01 -1.03072e+01  4.55364e-03
       O -8.69096e+00 -2.43560e+01  1.38549e+01
       H -8.12588e+00 -2.50691e+01  1.41800e+01
       H -8.75770e+00 -2.46349e+01  1.29031e+01
       O  7.07617e+00  1.18521e+01  2.23798e+01
       H  6.83397e+00  1.14638e+01  2.15426e+01
       H  7.83594e+00  1.12991e+01  2.26215e+01
       O -1.49373e+01  6.44409e+00 -2.06920e+01
       H -1.54847e+01  7.11168e+00 -2.02916e+01
       H -1.56042e+01  5.75710e+00 -2.08256e+01
       O  1.49947e+01  8.01905e+00 -5.12900e-01
       H  1.50347e+01  7.29862e+00 -1.14135e+00
       H  1.57650e+01  8.54406e+00 -7.29153e-01
       O -8.61958e+00 -4.19569e+00  1.50903e+01
       H -8.67874e+00 -3.96941e+00  1.41636e+01
       H -8.42056e+00 -5.14750e+00  1.52169e+01
       O -4.74636e+00 -1.21241e+01 -2.24251e+01
       H -4.92985e+00 -1.11980e+01 -2.24939e+01
       H -5.52023e+00 -1.24609e+01 -2.19132e+01
       O -5.43292e+00 -8.35322e+00  1.56630e+01
       H -4.72003e+00 -7.79381e+00  1.60839e+01
       H -4.93481e+00 -9.01278e+00  1.51717e+01
       O  6.34367e+00 -1.35354e+01  2.25014e+01
       H  6.44940e+00 -1.44742e+01  2.26932e+01
       H  6.92374e+00 -1.32807e+01  2.17329e+01
       O -2.72678e+01  2.59857e+00 -1.68039e+00
       H -2.69201e+01  1.72184e+00 -1.52534e+00
       H -2.66603e+01  3.07059e+00 -2.25804e+00
       O -1.75947e+01  2.04835e+01 -2.61874e+00
       H -1.67699e+01  2.02714e+01 -2.13427e+00
       H -1.82392e+01  2.09060e+01 -2.05740e+00
       O -9.09913e+00 -4.79331e+00 -2.17632e+01
       H -9.38793e+00 -4.22720e+00 -2.10346e+01
       H -9.65593e+00 -4.63537e+00 -2.25438e+01
       O  9.70124e+00  2.23309e+01  1.28625e+01
       H  9.26567e+00  2.27420e+01  1.36012e+01
       H  1.00831e+01  2.30655e+01  1.23447e+01
       O -9.16435e-01  5.95280e+00 -1.10972e+01
       H -1.55681e+00  6.68384e+00 -1.09698e+01
       H -2.76688e-01  6.34142e+00 -1.17323e+01
       O  6.78265e+00  8.32242e+00  7.87194e+00
       H  5.99003e+00  7.84251e+00  7.57273e+00
       H  7.48384e+00  8.06579e+00  7.24834e+00
       O -1.21489e+01  5.06827e+00 -1.28734e+01
       H -1.26581e+01  4.26313e+00 -1.29116e+01
       H -1.14153e+01  4.86425e+00 -1.34681e+01
       O -1.68110e+01 -2.16176e+01 -1.02363e+00
       H -1.65296e+01 -2.23690e+01 -1.59109e+00
       H -1.76689e+01 -2.13341e+01 -1.37858e+00
       O  2.69518e+01 -5.74146e+00  1.07371e+01
       H  2.75442e+01 -6.37056e+00  1.11259e+01
       H  2.61591e+01 -6.22938e+00  1.05014e+01
       O -1.88289e+01  5.63073e+00  1.37120e+01
       H -1.95566e+01  5.54252e+00  1.30532e+01
       H -1.91385e+01  5.02675e+00  1.44043e+01
       O -2.09362e+01  1.23621e+01  7.34818e+00
       H -2.16080e+01  1.16460e+01  7.14911e+00
       H -2.00605e+01  1.20828e+01  7.20081e+00
       O -1.04412e+01 -2.53097e+00  2.40716e+01
       H -1.04553e+01 -1.57643e+00  2.38917e+01
       H -1.02157e+01 -2.55542e+00  2.49958e+01
       O -8.66873e+00 -2.00443e+01 -1.98829e+01
       H -8.58349e+00 -2.05295e+01 -1.90421e+01
       H -7.73571e+00 -1.99176e+01 -2.01226e+01
       O  2.00429e+01  1.47321e+01 -7.43873e+00
       H  1.93600e+01  1.52600e+01 -6.94765e+00
       H  1.96340e+01  1.45154e+01 -8.31277e+00
       O  2.29963e+01 -1.45465e+01 -7.19083e+00
       H  2.30444e+01 -1.42373e+01 -6.30055e+00
       H  2.33332e+01 -1.37509e+01 -7.61948e+00
       O -2.12724e+01  1.63632e+00 -1.78642e+00
       H -2.09189e+01  2.52929e+00 -1.67242e+00
       H -2.17067e+01  1.36304e+00 -1.00777e+00
       O -1.92430e+01 -1.04951e+01 -3.76546e+00
       H -1.96656e+01 -1.05417e+01 -2.92711e+00
       H -1.97904e+01 -1.11294e+01 -4.27105e+00
       O  1.15521e+01  1.41695e+01 -1.38299e+01
       H  1.11861e+01  1.40377e+01 -1.47251e+01
       H  1.16139e+01  1.50897e+01 -1.35222e+01
       O  3.21065e+00  1.82808e+01  1.24047e+01
       H  2.28206e+00  1.84766e+01  1.26176e+01
       H  3.20705e+00  1.76079e+01  1.16947e+01
       O  1.26017e+00 -1.89047e+01  3.89532e+00
       H  1.45173e+00 -1.82041e+01  4.53315e+00
       H  1.80500e+00 -1.96890e+01  4.11344e+00
       O  5.51819e+00  6.67998e+00 -1.94696e+01
       H  5.13616e+00  7.56442e+00 -1.95777e+01
       H  4.86804e+00  6.12699e+00 -1.90369e+01
       O -5.93768e+00 -1.50678e+01 -1.96046e+01
       H -6.31568e+00 -1.42580e+01 -2.00654e+01
       H -6.77346e+00 -1.55479e+01 -1.95082e+01
       O -9.92146e+00 -1.97772e+01  1.39696e+01
       H -1.04375e+01 -1.97484e+01  1.31825e+01
       H -9.22344e+00 -2.03975e+01  1.37285e+01
       O -1.02252e+01  9.64513e+00 -1.73432e+01
       H -1.01726e+01  9.23631e+00 -1.82026e+01
       H -9.31992e+00  9.93830e+00 -1.70903e+01
       O  1.66542e+01  1.70256e+01 -4.63350e+00
       H  1.71579e+01  1.62634e+01 -4.26552e+00
       H  1.58182e+01  1.70477e+01 -4.15840e+00
       O -1.48615e+00 -1.98190e+01 -2.43521e+00
       H -6.21936e-01 -1.98005e+01 -2.79573e+00
       H -1.46751e+00 -1.90731e+01 -1.76759e+00
       O  3.80560e+00 -8.24964e+00 -1.54074e+01
       H  4.36416e+00 -8.29421e+00 -1.62186e+01
       H  3.99500e+00 -9.04565e+00 -1.49582e+01
       O  1.16357e+01  1.23242e+01 -4.16178e+00
       H  1.22849e+01  1.16985e+01 -4.54221e+00
       H  1.10843e+01  1.17056e+01 -3.64354e+00
       O  8.74959e+00 -1.30652e+01  1.22145e+01
       H  8.66434e+00 -1.37845e+01  1.15785e+01
       H  7.87936e+00 -1.28043e+01  1.24255e+01
       O  1.75711e+00  1.81464e+01  1.93653e+01
       H  2.54767e+00  1.85208e+01  1.88997e+01
       H  1.84367e+00  1.84058e+01  2.03140e+01
       O  1.53963e+01 -1.29301e+01  1.65758e+01
       H  1.55246e+01 -1.35246e+01  1.72764e+01
       H  1.46787e+01 -1.32907e+01  1.59914e+01
       O  8.76568e-01  2.75867e+01  3.97437e+00
       H  1.80324e+00  2.77033e+01  3.70299e+00
       H  9.04283e-01  2.78317e+01  4.89607e+00
       O  1.58307e+01  1.44306e+01 -1.94674e+01
       H  1.48523e+01  1.42749e+01 -1.94757e+01
       H  1.60659e+01  1.40022e+01 -1.85984e+01
       O  5.29868e+00  1.38445e+01 -5.55987e+00
       H  5.57700e+00  1.29820e+01 -5.22326e+00
       H  4.95303e+00  1.36897e+01 -6.42475e+00
       O -1.78129e+01 -1.67601e+01 -3.05273e+00
       H -1.68995e+01 -1.70555e+01 -3.20179e+00
       H -1.80175e+01 -1.70461e+01 -2.17337e+00
       O  1.25194e+01  2.15679e+01 -1.14902e+01
       H  1.31431e+01  2.09204e+01 -1.10829e+01
       H  1.30880e+01  2.21750e+01 -1.20012e+01
       O -1.49288e+00  2.31431e+01 -1.85867e+00
       H -7.67622e-01  2.25840e+01 -2.17722e+00
       H -9.86962e-01  2.39020e+01 -1.45399e+00
       O  1.18192e+01  2.40239e+01 -7.81826e+00
       H  1.18922e+01  2.49383e+01 -8.14944e+00
       H  1.11941e+01  2.35921e+01 -8.43065e+00
       O  1.54700e+01 -6.31718e+00 -2.18531e+00
       H  1.45440e+01 -6.51598e+00 -2.16606e+00
       H  1.56436e+01 -5.70627e+00 -1.47043e+00
       O  2.29585e+00 -1.71794e+00 -2.36811e+01
       H  1.35148e+00 -1.48142e+00 -2.37108e+01
       H  2.75193e+00 -8.74037e-01 -2.39955e+01
       O -1.24869e+01  2.34165e+01  2.63781e+00
       H -1.27373e+01  2.43307e+01  2.92431e+00
       H -1.23161e+01  2.30425e+01  3.51299e+00
       O -1.87951e+01 -1.80872e+01  1.27557e+01
       H -1.85658e+01 -1.90238e+01  1.26649e+01
       H -1.90500e+01 -1.76998e+01  1.18751e+01
       O  6.89536e+00 -4.41213e+00  1.16809e+01
       H  6.92840e+00 -4.46896e+00  1.07351e+01
       H  6.49362e+00 -3.56632e+00  1.19234e+01
       O  4.91019e+00  1.87249e+01 -1.24245e+01
       H  5.23511e+00  1.95074e+01 -1.20115e+01
       H  5.59001e+00  1.83459e+01 -1.29775e+01
       O -1.21775e+01 -3.90725e+00  2.21584e+01
       H -1.18118e+01 -3.43993e+00  2.29268e+01
       H -1.29043e+01 -4.51693e+00  2.24157e+01
       O  2.32328e+01 -1.34016e+01  3.90826e+00
       H  2.34592e+01 -1.35535e+01  2.94882e+00
       H  2.36590e+01 -1.40888e+01  4.43364e+00
       O  1.73751e+01 -7.41002e-01  1.29061e+01
       H  1.73837e+01 -8.65963e-01  1.19543e+01
       H  1.77799e+01 -1.52289e+00  1.33049e+01
       O -1.66879e+01  2.67124e+00  4.82346e+00
       H -1.75627e+01  3.03118e+00  4.96974e+00
       H -1.60100e+01  3.26220e+00  5.17771e+00
       O -5.50737e+00 -1.29089e+01  2.31023e+01
       H -6.18961e+00 -1.33215e+01  2.36790e+01
       H -6.04109e+00 -1.27841e+01  2.22928e+01
       O -2.10408e+00  7.65875e+00 -2.53521e+01
       H -1.97980e+00  8.08439e+00 -2.62166e+01
       H -2.50659e+00  8.39510e+00 -2.49125e+01
       O -1.84651e+01  1.96786e+01  1.39494e+00
       H -1.89513e+01  1.89100e+01  1.24200e+00
       H -1.85810e+01  1.97853e+01  2.31551e+00
       O -1.87538e+01 -5.23914e+00  1.70528e+01
       H -1.93750e+01 -5.57907e+00  1.76831e+01
       H -1.88147e+01 -4.25006e+00  1.70164e+01
       O  2.40431e+00 -1.70433e+01  2.32392e+01
       H  1.72198e+00 -1.71266e+01  2.25848e+01
       H  2.89417e+00 -1.62335e+01  2.30558e+01
       O  1.74334e+01  2.53774e+00  6.81052e+00
       H  1.77378e+01  2.32610e+00  7.72905e+00
       H  1.81782e+01  3.08615e+00  6.55235e+00
       O  2.18853e+01  1.73306e+00 -1.32917e+01
       H  2.22942e+01  2.10032e+00 -1.40942e+01
       H  2.25411e+01  1.92180e+00 -1.26182e+01
       O -1.74178e+01  1.76624e+01 -1.04339e+01
       H -1.70376e+01  1.79376e+01 -1.12817e+01
       H -1.67691e+01  1.79793e+01 -9.81552e+00
       O -4.00772e+00  1.84114e+01 -2.95381e+00
       H -4.30556e+00  1.92021e+01 -3.54138e+00
       H -4.84451e+00  1.79249e+01 -3.02548e+00
       O -6.29563e+00  2.03040e+01  2.07395e+01
       H -6.08643e+00  1.99487e+01  1.98294e+01
       H -6.94251e+00  1.97255e+01  2.11355e+01
       O -1.27589e+01  7.47863e+00  2.32761e+01
       H -1.23024e+01  8.33590e+00  2.31881e+01
       H -1.22173e+01  6.76580e+00  2.37133e+01
       O  1.81609e+00  1.70322e+01  8.82219e+00
       H  1.96724e+00  1.76372e+01  8.07713e+00
       H  2.60028e+00  1.68341e+01  9.31162e+00
       O -1.67472e+01 -1.99313e+01 -5.43266e+00
       H -1.62258e+01 -1.92702e+01 -4.97386e+00
       H -1.62926e+01 -2.07839e+01 -5.22026e+00
       O -6.56902e+00  1.20065e+01 -1.20486e+01
       H -6.81562e+00  1.12609e+01 -1.26693e+01
       H -7.06818e+00  1.27355e+01 -1.24219e+01
       O  2.29750e+01 -4.69641e+00  3.98426e+00
       H  2.33527e+01 -3.99873e+00  4.55766e+00
       H  2.30419e+01 -4.27530e+00  3.14379e+00
       O  1.27603e+01 -8.22688e+00  8.26549e+00
       H  1.29808e+01 -7.83304e+00  9.11987e+00
       H  1.21310e+01 -7.63815e+00  7.84334e+00
       O -8.42804e+00  7.61074e+00  9.25298e+00
       H -7.59119e+00  7.84884e+00  9.73115e+00
       H -8.92077e+00  8.40919e+00  9.04230e+00
       O  1.67698e+01 -1.75522e+01  1.11187e+01
       H  1.76662e+01 -1.78539e+01  1.09208e+01
       H  1.61497e+01 -1.78501e+01  1.03953e+01
       O  2.09265e+01 -1.14000e+01  1.40560e+01
       H  2.09378e+01 -1.17279e+01  1.31861e+01
       H  2.00795e+01 -1.16795e+01  1.44005e+01
       O  5.63130e+00  8.21320e+00  1.73847e+01
       H  5.45040e+00  7.37283e+00  1.78511e+01
       H  5.12869e+00  8.11982e+00  1.65497e+01
       O -2.64977e+00 -1.85988e+01 -1.52755e+01
       H -3.36696e+00 -1.88703e+01 -1.58820e+01
       H -1.82770e+00 -1.90099e+01 -1.55885e+01
       O -7.74178e+00  6.87787e-01 -6.63081e-01
       H -7.13729e+00  8.38467e-01 -1.38142e+00
       H -8.20763e+00  1.50716e+00 -5.55263e-01
       O  7.67643e+00  1.53674e+00  1.20711e+01
       H  7.79515e+00  8.37628e-01  1.27508e+01
       H  7.64233e+00  2.38503e+00  1.25307e+01
       O  1.12572e+01 -1.30379e+01  1.01504e+01
       H  1.07659e+01 -1.23305e+01  1.05987e+01
       H  1.06586e+01 -1.34209e+01  9.48881e+00
       O -3.34063e+00  1.42480e+01  2.81767e-01
       H -4.27183e+00  1.41213e+01  5.64782e-01
       H -3.07659e+00  1.51703e+01  2.22456e-01
       O  1.03792e+01  1.08173e+01 -2.27237e+01
       H  1.04684e+01  9.83093e+00 -2.26132e+01
       H  1.09468e+01  1.10055e+01 -2.34612e+01
       O  7.20839e+00  2.16120e+00 -2.53900e+01
       H  6.70256e+00  1.98068e+00 -2.61495e+01
       H  6.64930e+00  2.41124e+00 -2.46598e+01
       O -1.43335e+01  8.18949e+00  1.71589e+01
       H -1.42399e+01  7.47554e+00  1.65104e+01
       H -1.47246e+01  7.69118e+00  1.79169e+01
       O  1.17775e+01  5.66887e+00 -2.16967e+01
       H  1.25389e+01  5.40351e+00 -2.22247e+01
       H  1.11887e+01  4.93934e+00 -2.19139e+01
       O -8.29126e+00  1.76121e+01  1.32965e+01
       H -7.35677e+00  1.78030e+01  1.34879e+01
       H -8.28517e+00  1.66540e+01  1.31933e+01
       O  1.31274e-01 -1.75555e+01  2.18605e+01
       H -5.32682e-01 -1.82087e+01  2.20600e+01
       H -2.83073e-01 -1.67124e+01  2.21212e+01
       O  1.71707e+01  1.33286e+01 -1.20146e+01
       H  1.79046e+01  1.37417e+01 -1.16172e+01
       H  1.65722e+01  1.31453e+01 -1.12633e+01
       O -8.61828e+00 -5.09064e+00  2.71410e+01
       H -8.62934e+00 -5.93509e+00  2.76106e+01
       H -7.67956e+00 -4.98285e+00  2.69084e+01
       O -1.89417e+01 -1.53883e+00  1.22568e+01
       H -1.86554e+01 -1.51396e+00  1.32111e+01
       H -1.84497e+01 -8.17570e-01  1.19069e+01
       O -1.54307e+01 -1.01813e+01  4.93650e+00
       H -1.55082e+01 -9.33327e+00  4.46079e+00
       H -1.62646e+01 -1.07045e+01  4.87548e+00
       O  2.78990e+00 -8.36655e+00  1.28982e+01
       H  3.45871e+00 -7.66994e+00  1.27186e+01
       H  3.04523e+00 -9.10716e+00  1.23458e+01
       O  7.06469e+00  1.61170e+01 -4.86899e+00
       H  6.76288e+00  1.70445e+01 -4.94495e+00
       H  6.47472e+00  1.55576e+01 -5.38138e+00
       O -2.83858e+01 -2.21691e+00  2.15749e+00
       H -2.75571e+01 -1.98536e+00  1.74587e+00
       H -2.81838e+01 -2.58396e+00  3.04106e+00
       O  6.17839e+00  6.37422e+00  2.34676e+01
       H  5.48736e+00  6.44159e+00  2.41445e+01
       H  6.15909e+00  5.43647e+00  2.32313e+01
       O  2.75778e+01 -4.38830e+00 -8.19450e+00
       H  2.82582e+01 -3.69494e+00 -8.04322e+00
       H  2.72326e+01 -4.33395e+00 -9.09764e+00
       O  1.05108e+01  3.88670e+00  5.01288e+00
       H  1.13505e+01  4.30095e+00  4.77366e+00
       H  9.85871e+00  4.47268e+00  4.57640e+00
       O -1.36699e+01 -6.36876e+00 -4.20112e+00
       H -1.39086e+01 -5.58006e+00 -3.68875e+00
       H -1.29894e+01 -6.13236e+00 -4.85266e+00
       O  8.73499e+00  1.61571e+01 -2.00703e+01
       H  7.93880e+00  1.60790e+01 -1.95136e+01
       H  9.35357e+00  1.54242e+01 -1.98968e+01
       O  2.42650e+00 -1.21823e+01 -2.17345e+01
       H  2.42807e+00 -1.24894e+01 -2.26517e+01
       H  3.04860e+00 -1.27794e+01 -2.13201e+01
       O -1.52574e+00 -2.62121e+01  7.58381e-01
       H -7.79221e-01 -2.56518e+01  6.56516e-01
       H -2.24573e+00 -2.57272e+01  3.39782e-01
       O -4.20304e+00 -1.70732e+01  2.05510e+01
       H -5.13406e+00 -1.70712e+01  2.02670e+01
       H -4.00556e+00 -1.61706e+01  2.08779e+01
       O  1.22516e+00 -2.57803e+01  9.10849e+00
       H  4.35148e-01 -2.58558e+01  8.52602e+00
       H  1.98065e+00 -2.55979e+01  8.52312e+00
       O  3.73929e+00  2.73839e+01 -9.06135e+00
       H  4.16714e+00  2.76545e+01 -9.90092e+00
       H  4.28600e+00  2.67072e+01 -8.58518e+00
       O  1.26075e+01 -1.16514e+01 -1.82254e+01
       H  1.20294e+01 -1.09930e+01 -1.78151e+01
       H  1.27098e+01 -1.13999e+01 -1.91943e+01
       O -1.77025e+01  2.92611e+00 -1.09130e+01
       H -1.74211e+01  3.38961e+00 -1.16995e+01
       H -1.72733e+01  3.40253e+00 -1.01653e+01
       O  2.67380e+01  8.87999e+00 -6.22383e+00
       H  2.62016e+01  8.89253e+00 -5.41319e+00
       H  2.66926e+01  9.77478e+00 -6.56412e+00