ITEM: TIMESTEP
0
ITEM: NUMBER OF ATOMS
12
ITEM: BOX BOUNDS pp pp pp
-1.0000000000000000e+01 1.0000000000000000e+01
-1.0000000000000000e+01 1.0000000000000000e+01
-1.0000000000000000e+01 1.0000000000000000e+01
ITEM: ATOMS id type x y z fx fy fz 
1 1        -0.3476178881         0.2237313366        -0.0099154063     2.26706725798518    -9.24700827586673     5.32419198453541 
2 2          0.070932878        -0.6519721642         0.6471764108    -7.80024009142814     17.3041346592088    -12.9876685846172 
3 2         -0.778614474         1.0711451166        -0.6879403924     4.83741169516786    -9.23379867395334     6.74246621308431 
4 1         2.0135383728           2.45638142        -0.9084926918     1.72301671989667    -5.82714379990905     -2.0060894510058 
5 2         2.4173378894         1.3610844076        -0.7839983735     -5.8826831615313     19.3007383474042    -2.34889844314805 
6 2          1.631013652         3.5458287814        -1.0710246849     5.34412125920827     -12.876814915723     1.96783106733112 
7 3         2.7444571499        -0.0288953975         2.0146795423    -1.79307878656532    -1.90959314299656    -6.27316953725551 
8 4         2.0559286005        -0.6690597132         1.7989680726     2.61535325618681     1.54587619576246     2.06927450059212 
9 4          3.160706331          0.144974533         1.1623613238   -0.877239136925735   -0.686671308411812      3.7157444141118 
10 3         0.9925968546         2.1439525102         1.6639051316     2.68276754167553    0.844244002468566     11.8668390044137 
11 4         0.8050178487         2.7574021582         2.3791378598    0.829317937668126     -3.4692751463976    -5.48593729945339 
12 4          1.620302541         1.4960194683         2.0291893372    -3.94581449132828     4.25531205840578    -2.58458386858247 
