LAMMPS data file via write_data, version 2 Aug 2023, timestep = 100, units = real

3072 atoms
2 atom types
2048 bonds
1 bond types
1024 angles
1 angle types

0.00024108338054951162 31.286382649373174 xlo xhi
0.00024108338054951162 31.286382649373174 ylo yhi
0.00024108338054951162 31.286382649373174 zlo zhi

Masses

1 15.9994
2 1.008

Atoms # full

1 1 1 -1.1128 12.088356807401011 29.095381006730314 26.21281275496623 0 0 0
2 1 2 0.5564 12.6475203529081 28.397487528810437 26.53094131574023 0 0 0
3 1 2 0.5564 12.68162615325231 29.905633573438664 26.182377906124266 0 0 0
4 2 1 -1.1128 25.84029129096937 12.61516400546778 23.231150421005353 0 0 0
5 2 2 0.5564 26.462718523380893 13.353519427221816 23.461378344523453 0 0 0
6 2 2 0.5564 26.12973090311891 12.351650613414662 22.362292253912017 0 0 0
7 3 1 -1.1128 7.893112080313351 6.51695326498586 10.605685128575928 1 1 0
8 3 2 0.5564 8.466525624540939 5.844688332966867 11.052650037871079 1 1 0
9 3 2 0.5564 6.975428826382351 6.202350467578181 10.733518525159369 1 1 0
10 4 1 -1.1128 5.613607369979687 13.052295899604818 12.822376907859509 1 0 0
11 4 2 0.5564 5.19242919413555 12.490198194720179 13.525815027496872 1 0 0
12 4 2 0.5564 4.868729288273843 13.068920974379523 12.188726790513996 1 0 0
13 5 1 -1.1128 6.501424409296826 1.432554073226101 21.853066760038594 1 1 0
14 5 2 0.5564 5.73876903383233 0.906530406987504 21.711690849827804 1 1 0
15 5 2 0.5564 6.721266292157565 1.424723743552114 22.83526876707819 1 1 0
16 6 1 -1.1128 7.468832044970674 12.566785795815761 24.293571791217936 1 0 0
17 6 2 0.5564 6.598085257727117 12.976816873606307 24.49520639396318 1 0 0
18 6 2 0.5564 7.884649291245663 12.534784786468427 25.154600414575285 1 0 0
19 7 1 -1.1128 24.808711510112722 29.613861125800668 22.269782512799324 0 0 0
20 7 2 0.5564 24.432150036037214 29.86119353329829 21.402868610120528 0 0 0
21 7 2 0.5564 25.462169169273558 28.92165590495876 22.07929804862175 0 0 0
22 8 1 -1.1128 15.111285731327616 19.560095704596016 31.262418766757783 0 0 0
23 8 2 0.5564 15.3850107859284 20.276632868928253 0.5929850738077932 0 0 1
24 8 2 0.5564 15.96126543001575 19.01960065841979 31.153669024646135 0 0 0
25 9 1 -1.1128 22.157226794998834 19.28919361340695 3.609967605407362 0 0 1
26 9 2 0.5564 21.65057036789794 19.715064724384696 4.327240120928873 0 0 1
27 9 2 0.5564 21.754785990167896 18.43162779216921 3.5196438682223548 0 0 1
28 10 1 -1.1128 8.10031689671482 22.67947597073278 1.1428390584660695 1 0 1
29 10 2 0.5564 7.3518788665868815 22.162039461970224 0.8398633134547173 1 0 1
30 10 2 0.5564 8.702866367707797 22.029920477331856 1.5684496114631483 1 0 1
31 11 1 -1.1128 22.68159690536929 28.223045531752753 1.4002781277212342 0 0 1
32 11 2 0.5564 23.563070798928642 27.755258843974936 1.1760361394640249 0 0 1
33 11 2 0.5564 21.871619031547418 27.91206917496141 0.9362548875096837 0 0 1
34 12 1 -1.1128 5.370999292933105 24.99442604720324 18.44300878392761 1 0 0
35 12 2 0.5564 5.665209052546259 25.531771921300724 19.235709616482808 1 0 0
36 12 2 0.5564 5.83051909499167 25.291582568157025 17.682579174184895 1 0 0
37 13 1 -1.1128 11.106821385356119 31.055449046567098 15.904707232086292 0 0 0
38 13 2 0.5564 10.399592786053084 30.432035896267593 15.912020336288801 0 0 0
39 13 2 0.5564 11.527362876887636 30.885587737116474 16.736868034415664 0 0 0
40 14 1 -1.1128 29.408081940142104 23.50680176505353 21.307542857332912 0 0 0
41 14 2 0.5564 28.921546169861585 23.312102144191748 22.15069027137701 0 0 0
42 14 2 0.5564 29.917522056093837 24.337160485128003 21.484075404003065 0 0 0
43 15 1 -1.1128 13.526279825055209 26.195308945818127 23.052826134792497 0 0 0
44 15 2 0.5564 13.39841087798659 26.369414007360277 22.11846167678538 0 0 0
45 15 2 0.5564 14.439715349987374 26.00307454951335 23.156594592246392 0 0 0
46 16 1 -1.1128 14.689082961471458 2.3613945922036064 4.659572586764416 0 1 1
47 16 2 0.5564 13.985845081173345 2.709813833818712 5.163137212734978 0 1 1
48 16 2 0.5564 15.241631169703178 1.9425451652795243 5.334985370563481 0 1 1
49 17 1 -1.1128 14.960832632329097 27.116296686880084 18.689012647686347 0 0 0
50 17 2 0.5564 15.725176435353683 26.675168924414976 19.06842789809552 0 0 0
51 17 2 0.5564 15.058652291726162 26.804238489485513 17.786017994742068 0 0 0
52 18 1 -1.1128 9.924081567079275 27.811733986590568 14.839704756156806 0 0 0
53 18 2 0.5564 10.393928190454286 27.445361774639963 15.614217740373956 0 0 0
54 18 2 0.5564 9.21110332477249 27.19766967146741 14.699352640005914 0 0 0
55 19 1 -1.1128 17.743613279367516 7.843454083133596 1.469211707963323 0 1 1
56 19 2 0.5564 17.600897092177263 8.037367039823618 0.5161599608580375 0 1 1
57 19 2 0.5564 18.750584600444306 7.776462652293022 1.5053665259804394 0 1 1
58 20 1 -1.1128 31.23085829412954 13.381211799574784 17.841485329510263 0 0 0
59 20 2 0.5564 0.6608968820593811 12.7176541537697 18.05169035629531 1 0 0
60 20 2 0.5564 0.34628514335960336 14.11231950920594 17.358131716500715 1 0 0
61 21 1 -1.1128 6.285779519832686 20.7264990509223 1.2583376206136894 1 0 1
62 21 2 0.5564 6.1832670336952384 20.353538550019863 2.1337982726956586 1 0 1
63 21 2 0.5564 5.349838465901343 20.86450755857443 1.0802772705751085 1 0 1
64 22 1 -1.1128 2.510170231074503 23.43902796723455 8.298388242388413 1 0 1
65 22 2 0.5564 2.6352642721315904 24.04854125554396 9.079114454907392 1 0 1
66 22 2 0.5564 3.030299762914775 23.713681823849328 7.4997524168971115 1 0 1
67 23 1 -1.1128 27.980367429085057 29.947343495031838 7.759199152408575 0 0 1
68 23 2 0.5564 27.34193524295764 29.49570448491103 8.374457545550921 0 0 1
69 23 2 0.5564 28.724426058864438 30.19493526783421 8.367125927871394 0 0 1
70 24 1 -1.1128 25.26005597827524 8.159227726648888 5.826573868227014 0 1 1
71 24 2 0.5564 24.99474753113728 8.9820185753047 6.300872093505618 0 1 1
72 24 2 0.5564 25.258112621873437 7.500918412068008 6.42875658269253 0 1 1
73 25 1 -1.1128 29.748446716638682 5.664919728405326 16.60097492965356 0 1 0
74 25 2 0.5564 30.474790087862665 5.004580643046163 16.61916451577065 0 1 0
75 25 2 0.5564 30.2274169584471 6.365191923765144 17.12732570541361 0 1 0
76 26 1 -1.1128 30.648061609415144 24.21665572485034 17.710129663325937 0 0 0
77 26 2 0.5564 30.36297172136888 24.097848188641926 16.779641378482744 0 0 0
78 26 2 0.5564 0.3503914436740401 24.358565412487806 17.574876500319107 1 0 0
79 27 1 -1.1128 12.008210756940633 9.665068997082386 12.622564067029424 0 0 0
80 27 2 0.5564 12.459450551314406 10.492011496122993 12.443509731795226 0 0 0
81 27 2 0.5564 12.189410678538373 9.372714852473822 13.551294402909448 0 1 0
82 28 1 -1.1128 5.213506926263972 15.507664393486326 15.31292897897371 1 0 0
83 28 2 0.5564 5.107892879926937 15.84759432064277 16.253018671741053 1 0 0
84 28 2 0.5564 4.3532463140801525 15.736974865387305 14.90181402416238 1 0 0
85 29 1 -1.1128 7.19058671545025 11.290139540256842 28.43896884166238 1 0 0
86 29 2 0.5564 6.843060604651295 12.210299555254178 28.277242683504866 1 0 0
87 29 2 0.5564 7.259464024419789 11.29422719650571 29.402774558129224 1 0 0
88 30 1 -1.1128 10.644111446026837 1.4469293055573085 13.911768932111928 0 1 0
89 30 2 0.5564 10.944617536971448 0.9166270295554843 14.668554342826809 0 1 0
90 30 2 0.5564 11.387271733335888 1.9046426577126452 13.482836301674137 0 1 0
91 31 1 -1.1128 2.532133045196889 14.523284016904885 8.693289552448023 1 0 1
92 31 2 0.5564 3.139378185523268 13.867729343105328 9.009673665866408 1 0 1
93 31 2 0.5564 1.6774237611756353 14.081921165876945 8.512257115913892 1 0 1
94 32 1 -1.1128 28.54446236814006 6.407721006254109 0.8271082217425504 0 1 1
95 32 2 0.5564 29.457019201506185 6.647180569810427 1.0935791892720168 0 1 1
96 32 2 0.5564 27.857762352788953 7.1152985640901445 0.9983659924869616 0 1 1
97 33 1 -1.1128 20.690211180562805 9.123895721682855 4.129241432128318 0 1 1
98 33 2 0.5564 19.851067845958667 8.686594439139121 4.282906646410044 0 1 1
99 33 2 0.5564 21.28955617755389 8.445030896086559 3.7354436390230967 0 1 1
100 34 1 -1.1128 25.078031925000083 30.821715136392875 0.2650586421394685 0 0 1
101 34 2 0.5564 24.465979210229676 0.284688145721384 0.11445160259114295 0 1 1
102 34 2 0.5564 24.894357480413824 30.46025420692255 1.1310537789454957 0 0 1
103 35 1 -1.1128 23.7279631949619 21.33616535579067 18.706545522944914 0 0 0
104 35 2 0.5564 23.116648743985586 20.674980485372224 18.338394286767887 0 0 0
105 35 2 0.5564 23.501797785048936 22.208128543848126 18.38657784281886 0 0 0
106 36 1 -1.1128 5.352181487356114 28.452113699973324 19.279731130082332 1 0 0
107 36 2 0.5564 5.106227291831419 29.38259786548069 19.14572367788211 1 0 0
108 36 2 0.5564 6.314786692846348 28.45723954187396 19.352631648382065 1 0 0
109 37 1 -1.1128 28.927536459471497 26.655787610867996 8.811648576506485 0 0 1
110 37 2 0.5564 29.496168874466207 25.94387344718379 8.444480190957139 0 0 1
111 37 2 0.5564 28.52530601456816 27.179166455744763 8.101268250012184 0 0 1
112 38 1 -1.1128 16.596400414375246 27.025545239820197 20.98375419695374 0 0 0
113 38 2 0.5564 16.239503691357136 26.721739631230953 21.856460361182158 0 0 0
114 38 2 0.5564 16.09839691786442 27.838932493200204 20.797331544398133 0 0 0
115 39 1 -1.1128 0.40419981724789206 17.360332348815305 27.601088768622418 1 0 0
116 39 2 0.5564 30.910360328220683 16.93244366827672 27.47425931803648 0 0 0
117 39 2 0.5564 0.4936462385203117 18.08100954013365 26.99408505372618 1 0 0
118 40 1 -1.1128 14.390281050390957 5.441020811084946 25.75116039201408 0 1 0
119 40 2 0.5564 14.581800290687351 6.086304552039568 24.984164840498593 0 1 0
120 40 2 0.5564 13.873204765055283 4.769325718648761 25.29006312470048 0 1 0
121 41 1 -1.1128 5.189302565100792 8.697379044331791 24.66004808886747 1 1 0
122 41 2 0.5564 5.64659706070906 9.026559460929173 25.495054830365454 1 1 0
123 41 2 0.5564 5.601092978210215 9.197820669154556 24.003567266594402 1 1 0
124 42 1 -1.1128 12.35943596286599 19.056513578667037 10.850109650616075 0 0 0
125 42 2 0.5564 12.540840486887976 18.202505352327584 11.246985141393964 0 0 0
126 42 2 0.5564 13.13482337083723 19.557968288026508 10.819152438239637 0 0 0
127 43 1 -1.1128 27.3911969610959 24.531430638748205 29.05584676807635 0 0 0
128 43 2 0.5564 26.877899702937064 23.80539315382881 28.653408884373604 0 0 0
129 43 2 0.5564 28.28004796105438 24.26476319418714 28.822201785380052 0 0 0
130 44 1 -1.1128 30.587018095362666 25.180413736075984 24.56473387016181 0 0 0
131 44 2 0.5564 0.27518908789311236 25.203834263958946 24.34152702733104 1 0 0
132 44 2 0.5564 30.33851645463129 26.040445414290723 24.913782934219647 0 0 0
133 45 1 -1.1128 15.26995746204766 21.971622250545735 21.873420424324145 0 0 0
134 45 2 0.5564 16.1810811665545 22.235274429073712 22.011441914440255 0 0 0
135 45 2 0.5564 15.34313837237053 21.048214671552252 21.503366372395355 0 0 0
136 46 1 -1.1128 8.796254811729963 17.30359013676899 28.246285689998892 1 0 0
137 46 2 0.5564 9.509916220737095 16.987969299896847 28.79985814949223 1 0 0
138 46 2 0.5564 8.029349942946684 17.443790042714838 28.884412576933705 1 0 0
139 47 1 -1.1128 2.262901258636867 14.927513637120466 16.465089595054266 1 0 0
140 47 2 0.5564 2.023030446624369 15.822368352565938 16.194439236405145 1 0 0
141 47 2 0.5564 2.20464538992025 14.37809902488069 15.694929114774382 1 0 0
142 48 1 -1.1128 14.565223628691662 3.362795149906055 11.377987877077238 0 1 0
143 48 2 0.5564 14.98009933313779 2.479886632891832 11.60485934238415 0 1 0
144 48 2 0.5564 15.21138205044694 4.073801813364172 11.638446571292391 0 1 0
145 49 1 -1.1128 17.28097551106883 15.590152565524395 8.625163425087472 0 0 1
146 49 2 0.5564 16.35405070000421 15.795729151162087 8.86634466192338 0 0 1
147 49 2 0.5564 17.45996767266898 15.8891620736407 7.7684733012061065 0 0 1
148 50 1 -1.1128 17.71634591422916 9.169817663545095 14.55819520665315 0 1 0
149 50 2 0.5564 18.20028697173148 9.000533592973282 13.75102528258354 0 1 0
150 50 2 0.5564 18.166293069637426 9.811820526674582 15.160527293744773 0 0 0
151 51 1 -1.1128 6.799584378264399 0.5552815869209569 2.171834438532185 1 1 1
152 51 2 0.5564 7.111382452856731 31.201932590147173 1.5414764410859856 1 0 1
153 51 2 0.5564 5.916997663935513 0.6791812433829367 1.9532343412826274 1 1 1
154 52 1 -1.1128 23.374133758326202 6.8677686495481804 14.144959802491236 0 1 0
155 52 2 0.5564 22.63910274141091 6.525092069294315 13.702999358267236 0 1 0
156 52 2 0.5564 24.12274769951678 6.519496451367023 13.611101310041446 0 1 0
157 53 1 -1.1128 24.874327359124287 23.138440258121825 12.246834032360159 0 0 0
158 53 2 0.5564 25.441095468684992 23.044578420185395 11.376376977170782 0 0 0
159 53 2 0.5564 25.30788803168332 23.66618421275517 12.901274869414797 0 0 0
160 54 1 -1.1128 3.8218370379154916 4.107662286039214 17.490604288697433 1 1 0
161 54 2 0.5564 3.0245556777635385 3.5926830943053343 17.293959408461383 1 1 0
162 54 2 0.5564 3.5575116570111094 4.880086914423406 17.992333024244154 1 1 0
163 55 1 -1.1128 16.00520369255176 5.019393917511714 14.39629962491227 0 1 0
164 55 2 0.5564 16.921799938691123 5.015345735038123 14.63943301445775 0 1 0
165 55 2 0.5564 15.873084482949304 5.868390184668497 13.914679204720095 0 1 0
166 56 1 -1.1128 31.26035354774718 10.094491683949622 27.003403150407443 0 0 0
167 56 2 0.5564 0.6869501411845133 10.061825825296284 26.357094774682466 1 0 0
168 56 2 0.5564 31.044689963382552 9.14550554845951 27.25266556486166 0 1 0
169 57 1 -1.1128 12.512332005933875 16.349233298022227 2.819635784785468 0 0 1
170 57 2 0.5564 12.732136556430216 16.661172530954993 3.696343117562973 0 0 1
171 57 2 0.5564 12.77226575876237 15.433967480034305 2.6460520251366946 0 0 1
172 58 1 -1.1128 27.192345255488718 2.2985239593449363 26.5624300069434 0 1 0
173 58 2 0.5564 27.341211127356956 2.0921826947515094 27.49472617200432 0 1 0
174 58 2 0.5564 27.33275888315802 3.249030960025485 26.497981763695066 0 1 0
175 59 1 -1.1128 23.904101210808612 21.510787022738086 15.04450054602292 0 0 0
176 59 2 0.5564 23.372775795321033 22.317463255185324 15.201466388824525 0 0 0
177 59 2 0.5564 23.351320388912974 20.848967243868508 15.539606764327479 0 0 0
178 60 1 -1.1128 12.479446759969589 13.509059554617393 8.571696698122343 0 0 1
179 60 2 0.5564 13.179153848670715 14.15731853922655 8.673268406296653 0 0 1
180 60 2 0.5564 12.328660503282064 13.266394071128653 7.680141367265508 0 0 1
181 61 1 -1.1128 24.500440571887218 16.665060569756697 5.945528720397625 0 0 1
182 61 2 0.5564 24.07467937664653 15.913091826628389 5.498290227190064 0 0 1
183 61 2 0.5564 24.978908398786295 17.139924275990886 5.262079947468718 0 0 1
184 62 1 -1.1128 26.82449526900831 19.89527098207553 6.561918454248147 0 0 1
185 62 2 0.5564 25.916224702530954 19.54228032735211 6.6194404366924 0 0 1
186 62 2 0.5564 27.085217851447837 20.25661826317495 7.4183552096431775 0 0 1
187 63 1 -1.1128 2.0230844531234307 8.596620163393094 1.6591994900572409 1 1 1
188 63 2 0.5564 2.1772754720305088 7.712146129118353 2.068786759970602 1 1 1
189 63 2 0.5564 2.448587541096595 8.605081951057702 0.7358758634938596 1 1 1
190 64 1 -1.1128 10.484807968615598 29.60169148863696 2.693809784032371 0 0 1
191 64 2 0.5564 11.194040857697209 29.65958266458577 3.2958351300099262 0 0 1
192 64 2 0.5564 9.77866574396068 29.832672406025097 3.2504431322584963 0 0 1
193 65 1 -1.1128 14.897413555434007 29.382170834558316 20.885318553361202 0 0 0
194 65 2 0.5564 15.354834291013786 30.115745096869333 21.284306266866324 0 0 0
195 65 2 0.5564 14.963298712119181 29.620884418075768 19.926786434716007 0 0 0
196 66 1 -1.1128 27.178572748198114 1.3246360470645313 16.742969787380204 0 1 0
197 66 2 0.5564 27.92055079284085 1.1691024006995916 16.116429958287945 0 1 0
198 66 2 0.5564 26.564158470210778 1.9937933373374788 16.43319218209681 0 1 0
199 67 1 -1.1128 10.22466723544222 23.22741905324999 30.272260911611532 0 0 0
200 67 2 0.5564 11.031931093038452 23.516542494730224 30.746183579203255 0 0 0
201 67 2 0.5564 9.55884003254647 23.023611652062584 30.953350633814246 0 0 0
202 68 1 -1.1128 27.47108296282942 9.414661461119032 15.476956782362125 0 1 0
203 68 2 0.5564 27.599418930151998 8.88371780491997 14.636102748745502 0 1 0
204 68 2 0.5564 28.328441083549677 9.849417262297354 15.654126024112168 0 0 0
205 69 1 -1.1128 12.964256578401823 26.795621830569587 20.42414098498604 0 0 0
206 69 2 0.5564 12.168468844640001 27.288677197640958 20.2012415179386 0 0 0
207 69 2 0.5564 13.664514295178748 26.969453620073878 19.743503462572065 0 0 0
208 70 1 -1.1128 14.141710175904233 10.04678265681841 22.775852186421027 0 0 0
209 70 2 0.5564 14.580356643367113 9.736862559986541 21.97853253788213 0 0 0
210 70 2 0.5564 13.265170498175104 10.329493566998156 22.42828699695727 0 0 0
211 71 1 -1.1128 11.15412217202064 11.514849006745107 5.694720194044149 0 0 1
212 71 2 0.5564 12.102346125628209 11.708759236414947 5.694387519721819 0 0 1
213 71 2 0.5564 11.108582074488243 10.561741837675564 5.4429341412449075 0 0 1
214 72 1 -1.1128 27.669500055476533 14.478131146782172 23.90141106150407 0 0 0
215 72 2 0.5564 28.612202153938235 14.390885959303093 23.83402589568147 0 0 0
216 72 2 0.5564 27.382090847813913 15.288961815139178 23.54087434794436 0 0 0
217 73 1 -1.1128 6.909896208407505 22.77379771671808 6.743432437265494 1 0 1
218 73 2 0.5564 7.249997844187323 22.125702002543633 6.070788411808132 1 0 1
219 73 2 0.5564 7.308854257601761 22.340652319346873 7.556344763956858 1 0 1
220 74 1 -1.1128 17.899084007159715 2.6452227846139817 26.515352304411586 0 1 0
221 74 2 0.5564 18.030106822001237 2.440104142731574 27.452015976944203 0 1 0
222 74 2 0.5564 17.447470176466595 3.5258701950586184 26.50169104228955 0 1 0
223 75 1 -1.1128 27.0213134651231 4.96572851960071 26.923316082926448 0 1 0
224 75 2 0.5564 26.077671923047482 5.017158886401875 26.748926958663894 0 1 0
225 75 2 0.5564 27.29277361923836 5.747208491973654 26.364369555826592 0 1 0
226 76 1 -1.1128 10.291322555493933 13.224485713159664 23.810332039382835 0 0 0
227 76 2 0.5564 10.904738700528886 13.40380191916557 23.106992821563587 0 0 0
228 76 2 0.5564 9.599373198330712 12.665829585256589 23.38307524397996 0 0 0
229 77 1 -1.1128 4.417987609393278 1.7121453236661115 0.9691496956912059 1 1 1
230 77 2 0.5564 3.5498078653355223 1.2859162507621806 1.1882920840204192 1 1 1
231 77 2 0.5564 4.4537956607906475 2.300446411970981 1.7507094838904986 1 1 1
232 78 1 -1.1128 22.10856371713639 24.045128216524837 9.136379742042813 0 0 1
233 78 2 0.5564 22.04381654357565 23.934924986632623 8.196910049736173 0 0 1
234 78 2 0.5564 22.64737917564085 24.821041760810836 9.327854898451267 0 0 0
235 79 1 -1.1128 10.79760066939962 1.8176543790564073 9.265900604816892 0 1 1
236 79 2 0.5564 9.922557181968994 1.8263018298581266 8.869246535976606 0 1 1
237 79 2 0.5564 10.9033245288162 2.635802653561412 9.737989575658386 0 1 0
238 80 1 -1.1128 11.298711783066537 24.19932675661152 19.499908435479533 0 0 0
239 80 2 0.5564 11.65287855120245 24.90666989584374 20.01876872664053 0 0 0
240 80 2 0.5564 11.1744712545082 23.478856501561708 20.143217744515454 0 0 0
241 81 1 -1.1128 18.545962096250967 9.795597220476186 20.208735727820716 0 0 0
242 81 2 0.5564 19.39835336696104 9.498448531046737 20.139947505762393 0 0 0
243 81 2 0.5564 18.051433299684028 9.901996122009697 19.397272101657293 0 1 0
244 82 1 -1.1128 7.047865522827381 1.1084026006280303 8.75565503376799 1 1 1
245 82 2 0.5564 7.285542249192809 0.7365186675717356 9.637234691550649 1 1 0
246 82 2 0.5564 6.935222522197277 2.0953359825553313 8.712163949819178 1 1 1
247 83 1 -1.1128 15.620076296702768 30.972047823112703 6.185466512360637 0 0 1
248 83 2 0.5564 15.589706295957205 29.966192362891874 5.948876503764954 0 0 1
249 83 2 0.5564 16.08522418582651 31.019839824608404 7.05248086098924 0 0 1
250 84 1 -1.1128 11.497748201493398 8.658238820817763 30.462609567762307 0 1 0
251 84 2 0.5564 12.16726097690149 8.04563031439578 30.892411660729927 0 1 0
252 84 2 0.5564 11.13865109155973 8.027274482941419 29.832858281553094 0 1 0
253 85 1 -1.1128 27.93265355312777 7.320456663728759 25.76434913871855 0 1 0
254 85 2 0.5564 27.4927779775446 7.596814881867412 24.95042755933831 0 1 0
255 85 2 0.5564 27.514139008492272 7.713277994431809 26.558028840452636 0 1 0
256 86 1 -1.1128 17.19874801222977 5.501675582246946 26.31792316869094 0 1 0
257 86 2 0.5564 17.631839516033807 5.779565520839447 25.536741874842875 0 1 0
258 86 2 0.5564 16.205793797636005 5.471047737985999 26.196652119486288 0 1 0
259 87 1 -1.1128 14.890683730498452 20.125582051058238 3.458258413889761 0 0 1
260 87 2 0.5564 15.39375197452638 20.714387534409703 2.8575885757288217 0 0 1
261 87 2 0.5564 15.194641797759678 19.190752384988514 3.2552299976952046 0 0 1
262 88 1 -1.1128 12.43978107769932 9.690709888354451 19.010001701883347 0 1 0
263 88 2 0.5564 11.985076013440642 10.324530514551883 18.461029425758966 0 0 0
264 88 2 0.5564 13.077167717031658 10.169589141479396 19.544883624268905 0 0 0
265 89 1 -1.1128 7.529770360121351 27.686481243697003 5.719475203927926 1 0 1
266 89 2 0.5564 7.655208264698336 26.97298559552536 6.30505241940687 1 0 1
267 89 2 0.5564 6.8697341499760824 27.424756365016535 5.09634255136272 1 0 1
268 90 1 -1.1128 26.866166819280124 28.99044728687752 25.669350055697265 0 0 0
269 90 2 0.5564 26.038092507432005 28.593379282762285 25.863728189175944 0 0 0
270 90 2 0.5564 26.830869182128033 29.575345623683603 24.935585253639054 0 0 0
271 91 1 -1.1128 29.657029926355293 13.331021758224647 5.150146832310807 0 0 1
272 91 2 0.5564 29.87913687103336 13.001095478633111 4.254564632492507 0 0 1
273 91 2 0.5564 29.23451711491108 12.619158012580877 5.620186093646543 0 0 1
274 92 1 -1.1128 23.93648209244926 29.799260679650722 6.878124042138828 0 0 1
275 92 2 0.5564 23.235117598959704 29.14408593423694 6.829084830192729 0 0 1
276 92 2 0.5564 23.50164689903584 30.53423220615244 7.335348804322221 0 0 1
277 93 1 -1.1128 5.784830309850472 6.516315882113258 21.12383960400598 1 1 0
278 93 2 0.5564 5.791455924324705 5.623211481352173 20.714818709529787 1 1 0
279 93 2 0.5564 5.605610073479679 6.315220997578888 22.02689216978368 1 1 0
280 94 1 -1.1128 3.8176563187920314 16.30549805587114 6.930286793683593 1 0 1
281 94 2 0.5564 3.4454894449250313 15.59766761441521 7.46578930751081 1 0 1
282 94 2 0.5564 3.428176800880062 17.17749323384497 7.170121147741768 1 0 1
283 95 1 -1.1128 13.514798833419674 26.935144588737238 15.198452115617712 0 0 0
284 95 2 0.5564 14.088879478063788 27.638216886649666 15.496824417736056 0 0 0
285 95 2 0.5564 14.020157961616484 26.13780335677638 15.426769231883867 0 0 0
286 96 1 -1.1128 4.990504674981889 19.700841023122962 7.600907126698881 1 0 1
287 96 2 0.5564 4.798696179773555 19.760119378734473 6.656425304120846 1 0 1
288 96 2 0.5564 5.184826535045822 20.566296494833345 7.940345273335129 1 0 1
289 97 1 -1.1128 13.352618767827376 1.7921971789250717 22.124396607596985 0 1 0
290 97 2 0.5564 13.38687105954074 2.4679147043622547 21.448552273021456 0 1 0
291 97 2 0.5564 12.705336134717541 1.0953609882026232 21.72344532562905 0 1 0
292 98 1 -1.1128 8.496657661586836 25.6190837431348 22.090737284780438 1 0 0
293 98 2 0.5564 9.02334651764784 25.890652007097984 22.8399488666384 1 0 0
294 98 2 0.5564 8.527817724807283 24.66725355665443 21.947437110107252 1 0 0
295 99 1 -1.1128 7.605790871175511 23.730899412720674 3.5564363914315034 1 0 1
296 99 2 0.5564 7.849632860164151 23.875509707867337 2.615763992189728 1 0 1
297 99 2 0.5564 7.8731769188308744 24.447403728074782 4.120804816150593 1 0 1
298 100 1 -1.1128 7.318600163734605 28.62091332573582 25.06115845245803 1 0 0
299 100 2 0.5564 8.114127155401688 28.781243895184026 25.611966559219304 1 0 0
300 100 2 0.5564 6.649485955265095 29.05375420872089 25.599705731882032 1 0 0
301 101 1 -1.1128 21.325058464595273 27.817080473282473 4.105595488804701 0 0 1
302 101 2 0.5564 21.08957396229217 28.778927654172172 4.226883398565223 0 0 1
303 101 2 0.5564 21.932152584745054 27.75923860546586 3.3618511052467266 0 0 1
304 102 1 -1.1128 12.024202746735453 24.88709992065791 2.393096995941795 0 0 1
305 102 2 0.5564 12.020137277150656 23.94694587780505 2.6736275735896653 0 0 1
306 102 2 0.5564 12.194393134191388 24.69132151794782 1.439973507832413 0 0 1
307 103 1 -1.1128 24.154993025631377 13.90688886863602 19.988287531669563 0 0 0
308 103 2 0.5564 25.07172277076674 13.759957958150848 20.198768077662294 0 0 0
309 103 2 0.5564 24.244371384452144 14.527898922135464 19.261667349156326 0 0 0
310 104 1 -1.1128 15.217728260250546 17.829285581674483 14.36708670277177 0 0 0
311 104 2 0.5564 15.936528891997295 17.32650749558927 14.730931612219283 0 0 0
312 104 2 0.5564 15.295712356774521 18.72382235817544 14.746838736712034 0 0 0
313 105 1 -1.1128 18.877291520949882 6.2848902525037 28.175070006937148 0 1 0
314 105 2 0.5564 18.26282860494915 6.273926728973972 27.425929956933068 0 1 0
315 105 2 0.5564 18.306368306480763 5.959223992766922 28.854619368063616 0 1 0
316 106 1 -1.1128 14.689075400866516 30.080374285002172 0.5128549820156615 0 0 1
317 106 2 0.5564 14.690176227218869 30.7235488999287 1.2468948549313363 0 0 1
318 106 2 0.5564 15.61171303544745 29.979181603318807 0.16368480583299513 0 0 1
319 107 1 -1.1128 16.3455120256466 14.478496671079712 24.923414787176313 0 0 0
320 107 2 0.5564 15.514133079361878 15.010943858478234 25.222978538330466 0 0 0
321 107 2 0.5564 17.098219798838848 15.035767752459538 25.04671887507144 0 0 0
322 108 1 -1.1128 28.165720555874174 21.982163023784324 31.215433608280456 0 0 0
323 108 2 0.5564 27.251844962318863 21.773038380446835 0.2203106693553112 0 0 1
324 108 2 0.5564 28.606568714456493 22.534041419650215 0.5773620549008217 0 0 1
325 109 1 -1.1128 25.239531275195652 28.53386374971776 17.899623606391266 0 0 0
326 109 2 0.5564 25.353649617071717 29.3578093089611 18.370463486321945 0 0 0
327 109 2 0.5564 24.277818746855274 28.428794038728654 18.07405299091942 0 0 0
328 110 1 -1.1128 26.394430331664537 22.448900989638588 4.50890164384138 0 0 1
329 110 2 0.5564 27.357562649078837 22.484695540957723 4.626239568702256 0 0 1
330 110 2 0.5564 26.132907478817394 21.537711332507868 4.34176212168411 0 0 1
331 111 1 -1.1128 28.72719779241644 29.750977310833633 27.79526520607437 0 0 0
332 111 2 0.5564 28.04660448065662 29.765813264768774 27.112617071065443 0 0 0
333 111 2 0.5564 28.50024531621297 29.04401408077512 28.42682854367245 0 0 0
334 112 1 -1.1128 21.38493821564218 15.879596792404447 17.685797609999405 0 0 0
335 112 2 0.5564 20.907962349257403 15.078504250873252 17.94023530807158 0 0 0
336 112 2 0.5564 22.28063329880014 15.535198357843187 17.516643269266865 0 0 0
337 113 1 -1.1128 5.469367261208346 21.972705701368355 12.546427789254935 1 0 0
338 113 2 0.5564 5.834389912587356 22.710149460036064 12.071764786930974 1 0 0
339 113 2 0.5564 5.683977317826542 22.088899238682103 13.515071357150777 1 0 0
340 114 1 -1.1128 26.757474366636984 3.359850499745348 22.442455721078083 0 1 0
341 114 2 0.5564 26.70057327980357 3.704548813326939 21.521815185014972 0 1 0
342 114 2 0.5564 26.074603447265183 3.8286532816533145 22.936694134822716 0 1 0
343 115 1 -1.1128 19.862757426201462 14.029778727614888 4.011282740729576 0 0 1
344 115 2 0.5564 20.80335707403905 14.31512915749402 4.215959309582225 0 0 1
345 115 2 0.5564 19.948796675830074 13.159788627437063 3.545300156117283 0 0 1
346 116 1 -1.1128 26.951822342700893 5.979652854306723 17.829757208829108 0 1 0
347 116 2 0.5564 26.591846015653154 5.190617281236171 18.303824698641122 0 1 0
348 116 2 0.5564 27.839293910305564 5.637578841474856 17.6215165203944 0 1 0
349 117 1 -1.1128 30.809669854596578 24.589874883304944 8.400414680505063 0 0 1
350 117 2 0.5564 0.23036109807491115 24.637253161005 9.06838106246169 1 0 1
351 117 2 0.5564 0.07419121680251095 24.710220917005977 7.576494412061846 1 0 1
352 118 1 -1.1128 15.500675319798004 5.246063975248905 6.960985692384038 0 1 1
353 118 2 0.5564 16.133973543919844 4.9694655172828925 6.296367033101379 0 1 1
354 118 2 0.5564 14.68886375432627 5.2574294260767624 6.440262156262576 0 1 1
355 119 1 -1.1128 1.205834040123997 29.636619965534493 15.481400027845748 1 0 0
356 119 2 0.5564 0.2544981167714572 29.39467163887271 15.31569048321526 1 0 0
357 119 2 0.5564 1.538969757231172 29.615253053912788 14.538460596698377 1 0 0
358 120 1 -1.1128 1.9677238790482976 16.682965225186486 10.385284679081778 1 0 0
359 120 2 0.5564 2.260223590561282 17.335429467188966 9.676043215281963 1 0 0
360 120 2 0.5564 2.244384947628322 15.863953258732446 9.944305188256712 1 0 0
361 121 1 -1.1128 18.734521781551692 16.862179554441248 13.07221010867728 0 0 0
362 121 2 0.5564 19.655966621772883 16.58974878319205 13.222341115142644 0 0 0
363 121 2 0.5564 18.621900859435236 16.428215782005708 12.226526069464196 0 0 0
364 122 1 -1.1128 4.936247372166059 15.777509063063972 23.184952993265966 1 0 0
365 122 2 0.5564 4.694560427377912 15.402180781208992 24.11289488513797 1 0 0
366 122 2 0.5564 5.626988197799796 16.389621520355824 23.439212204742518 1 0 0
367 123 1 -1.1128 2.222887859073693 5.780301832044911 3.2272817154346947 1 1 1
368 123 2 0.5564 2.299813110682213 5.226083941155429 4.081911631856791 1 1 1
369 123 2 0.5564 2.40380184624124 5.138025680981261 2.543166200696774 1 1 1
370 124 1 -1.1128 12.517786031064851 21.30611019070882 27.716810527785448 0 0 0
371 124 2 0.5564 12.224608334859141 21.851770805560584 27.004531266887525 0 0 0
372 124 2 0.5564 13.046191452177656 20.643823862877532 27.28290256530535 0 0 0
373 125 1 -1.1128 28.86143343334966 27.03485022396398 25.856044418990713 0 0 0
374 125 2 0.5564 28.174524330510806 27.74389523972757 25.793792806142214 0 0 0
375 125 2 0.5564 28.796999797039604 26.627753229261394 26.73137271942271 0 0 0
376 126 1 -1.1128 22.911733121471222 21.56610067101333 24.205830772418658 0 0 0
377 126 2 0.5564 23.601152088995462 21.614893768909837 23.557906127662925 0 0 0
378 126 2 0.5564 22.15675348296279 21.188682300303427 23.7849985662954 0 0 0
379 127 1 -1.1128 18.092385089165226 16.312787954039877 6.063383724417575 0 0 1
380 127 2 0.5564 18.880384598497592 16.68383018321404 5.672261845342108 0 0 1
381 127 2 0.5564 18.079421821375007 15.40773876822347 5.700894130936123 0 0 1