LAMMPS data file via write_data, version 23 Jun 2022, timestep = 100000

3072 atoms
2 atom types
2048 bonds
1 bond types
1024 angles
1 angle types

3.9631427799366428 46.03685722006567 xlo xhi
3.9631427799366428 46.03685722006567 ylo yhi
3.9631427799366428 46.03685722006567 zlo zhi

Masses

1 15.9994
2 1.008

Atoms # full

154 52 1 -0.8476 7.500432209832541 6.830009052903526 8.298220352313237 0 0 0
486 162 2 0.4238 7.811873126850493 5.743095245246379 7.023002332970665 0 0 0
485 162 2 0.4238 7.434279269333717 4.415520582288552 6.362690910101946 0 0 0
484 162 1 -0.8476 8.084510999672142 5.135300633293081 6.304773137105029 0 0 0
819 273 2 0.4238 9.443012258296374 4.706601878257867 4.60580835378307 0 0 0
870 290 2 0.4238 7.243952394106075 4.197545747653468 9.571677540490153 0 0 0
872 291 2 0.4238 9.52714172621656 4.094206234295583 8.746002508764303 0 0 0
155 52 2 0.4238 7.573924446120113 7.750458162048517 8.566156374929532 0 0 0
156 52 2 0.4238 7.390104665772986 6.277714926677984 9.072024494223909 0 0 0
1156 386 1 -0.8476 5.508209596046332 4.374080061332804 8.916922599369059 0 0 0
868 290 1 -0.8476 8.107899134328058 4.176455498371791 10.107724075418453 0 0 0
867 289 2 0.4238 5.1420610073299855 8.349280514456355 9.770557001088287 0 0 0
392 131 2 0.4238 4.225540418653622 5.800636791652838 9.227858806870469 0 0 0
478 160 1 -0.8476 4.646350051348937 8.40675618615131 6.853517829925728 1 0 0
479 160 2 0.4238 5.304053617871321 8.08209462441978 6.229645311993302 1 0 0
480 160 2 0.4238 4.487699358703789 7.825274309948364 7.611796500743944 1 0 0
391 131 1 -0.8476 4.007895971784754 6.738367731653173 9.069362885049063 0 0 0
865 289 1 -0.8476 5.384695887723181 9.130222980805714 10.312899705789402 0 0 0
866 289 2 0.4238 6.2306390921521935 9.483378825892178 10.05530874512073 0 0 0
1014 338 2 0.4238 8.555823426654012 8.707729409699848 10.448594743736699 0 0 0
395 132 2 0.4238 6.753993077090225 6.7883350938034726 5.474310788841004 0 0 0
394 132 1 -0.8476 6.515896292263367 7.675224627834289 5.1638039863445755 0 0 0
1012 338 1 -0.8476 8.115409794443934 9.537136477895864 10.205099929597626 0 0 0
1682 561 2 0.4238 8.471829548894078 5.9443865252208745 10.771764321777876 0 0 0
542 181 2 0.4238 8.471310017085209 9.90982611733535 5.61413522501105 0 0 0
1157 386 2 0.4238 5.012568289067692 4.228780016795037 8.076042657395828 0 0 0
443 148 2 0.4238 9.819898475275656 7.64910857838515 6.6251024486295425 0 0 0
530 177 2 0.4238 5.498459876911993 9.9685614568405 7.468839876721736 0 0 0
873 291 2 0.4238 9.781690805833527 4.165172871572537 7.226761464430304 0 0 0
396 132 2 0.4238 5.9836850949648515 7.487018454981778 4.359196042574135 0 0 0
871 291 1 -0.8476 10.134600739912742 4.386219234985833 8.08421025257579 0 0 0
879 293 2 0.4238 11.801385374510865 4.82480277369804 4.476398719332237 0 0 0
488 163 2 0.4238 11.394540603186012 7.499875387399749 8.559652238701961 0 0 0
445 149 1 -0.8476 13.050223543549832 9.615712538403699 5.428344303975726 0 0 0
447 149 2 0.4238 12.52819508424423 9.822184498828832 6.1852318434461475 0 0 0
18 6 2 0.4238 12.87854240456987 4.794932664691071 6.370819446919452 0 0 0
16 6 1 -0.8476 12.915444434033898 4.41971477234636 7.231013422364702 0 0 0
929 310 2 0.4238 14.715425032808175 7.28669200245056 5.939826385289 0 0 0
928 310 1 -0.8476 15.702157848432112 7.405329057996725 5.9610948702901325 0 0 0
444 148 2 0.4238 10.172291790330345 6.322874070262083 7.393734899450344 0 0 0
442 148 1 -0.8476 10.52792617950723 7.212434118450224 7.152543905244878 0 0 0
1311 437 2 0.4238 14.693447851708124 9.44370968681842 7.627019654334839 0 0 0
1309 437 1 -0.8476 14.431698313575282 9.081866024556993 8.534398726371528 0 0 0
17 6 2 0.4238 12.118453449588372 4.701109843280777 7.690796397108605 0 0 0
1695 565 2 0.4238 14.231874863640073 5.581536314798306 8.565316830158235 0 0 0
1310 437 2 0.4238 14.013731384632587 9.845277919331032 9.014797356518915 0 0 0
487 163 1 -0.8476 12.01859624535709 7.466589619869404 9.286982173627049 0 0 0
489 163 2 0.4238 12.728786430194784 8.044776844251643 9.0411726009626 0 0 0
1693 565 1 -0.8476 14.941274657310345 5.580908159347737 9.223045059679453 0 0 0
1694 565 2 0.4238 14.623390989392448 4.897044543208337 9.827469234571355 0 0 0
877 293 1 -0.8476 12.77311026972666 5.087784171212286 4.461476693070616 0 0 0
876 292 2 0.4238 12.201046829443785 6.078382536393375 10.255721300598788 0 0 0
878 293 2 0.4238 13.36451426002777 4.408991651325345 4.131335118805805 0 0 0
874 292 1 -0.8476 12.366466727537388 5.217555997449866 10.70395491514821 0 0 0
594 198 2 0.4238 15.635138391258604 8.559703786734467 4.360270867753092 0 0 0
592 198 1 -0.8476 15.66789106652256 9.455798402239491 4.030754779493917 0 0 0
817 273 1 -0.8476 10.154040436247756 4.710811439759015 3.966723012379782 0 0 0
930 310 2 0.4238 16.158582432543575 6.527869747630479 5.863490062665228 0 0 0
71 24 2 0.4238 17.759380810863664 4.5721790609551825 6.001021667233411 0 0 0
70 24 1 -0.8476 17.906859276655663 5.337102889528101 5.442768125707271 0 0 0
72 24 2 0.4238 17.775569307547162 5.022411150191167 4.526908618101139 0 0 0
882 294 2 0.4238 16.261432036384054 7.813846982284703 8.521461175177254 0 0 0
881 294 2 0.4238 17.412561914015143 6.808538349084634 8.509064910757576 0 0 0
880 294 1 -0.8476 17.191222040168494 7.7280297158993285 8.900572640425041 0 0 0
461 154 2 0.4238 19.84581036424839 8.565262269213292 6.827226970410352 0 0 0
460 154 1 -0.8476 20.50524133570034 8.215563446434844 7.49537121205365 0 0 0
462 154 2 0.4238 20.03342603486672 8.015596756964023 8.298824726814534 0 0 0
455 152 2 0.4238 20.884768530153323 4.622626366167887 7.774764268518945 0 0 0
942 314 2 0.4238 18.81453099751949 9.312441393457759 5.083156336974529 0 0 0
885 295 2 0.4238 18.834397585220586 7.437183026370757 10.312725414088174 0 0 0
19 7 1 -0.8476 17.799962776825993 4.954804361808571 8.416754807669438 0 0 0
20 7 2 0.4238 18.264744378001737 4.894751249315779 9.252008825286634 0 0 0
940 314 1 -0.8476 18.826122821495915 8.419661269213005 5.409522229405095 0 0 0
454 152 1 -0.8476 21.097707205023184 4.024845416571515 8.52519814040157 0 0 0
1320 440 2 0.4238 21.525063764813428 9.594382999932124 7.955468349061327 0 0 0
883 295 1 -0.8476 19.788706824734096 7.619788917771844 10.19980033900498 0 0 0
941 314 2 0.4238 17.903113257654237 8.021363464400686 5.440155865681418 0 0 0
9 3 2 0.4238 20.982234895389816 6.262673833708019 6.574917122630951 0 0 0
7 3 1 -0.8476 20.560424230997207 5.626751717396944 5.991340495614841 0 0 0
8 3 2 0.4238 19.58614321900697 5.898178109025233 5.904611052832792 0 0 0
21 7 2 0.4238 16.877275837858342 4.785320876505908 8.499769713288389 0 0 0
1698 566 2 0.4238 20.34596794274247 4.607217284615177 10.495624635220612 0 0 0
1701 567 2 0.4238 17.700950202346384 9.3995440806974 8.638744416136795 0 0 0
1697 566 2 0.4238 19.812928946963737 6.060002124756005 10.59922914129583 0 0 0
1696 566 1 -0.8476 19.66742365236035 5.1047142231119444 10.914912341550174 0 0 0
77 26 2 0.4238 21.995063832009176 5.054121562920447 4.9869408597436795 0 0 0
76 26 1 -0.8476 22.536081194082907 5.005398948716728 4.179809616884032 0 0 0
78 26 2 0.4238 23.410157512372766 4.675115084693061 4.374286667577756 0 0 0
1661 554 2 0.4238 22.727277588780964 8.02427008776896 7.505227511714258 0 0 0
1660 554 1 -0.8476 23.250419276225937 7.322489226538545 7.048644760962253 0 0 0
1662 554 2 0.4238 24.134013381419578 7.706105806724753 7.225829876228294 0 0 0
794 265 2 0.4238 22.456576881469683 5.368579718355354 9.547307906983225 0 0 0
127 43 1 -0.8476 25.133719694605603 4.234619084632187 4.003579172624364 0 0 0
895 299 1 -0.8476 25.642964210031703 7.512994716872667 8.72751396855597 0 0 0
793 265 1 -0.8476 23.002407921192017 6.147664283039627 9.759146991293463 0 0 0
897 299 2 0.4238 25.77618363595109 7.878385474698687 9.615299915987315 0 0 0
795 265 2 0.4238 23.438808896227357 6.4931549690778745 8.967093404483352 0 0 0
893 298 2 0.4238 27.5264439129375 9.03759770475655 5.359272992249616 0 0 0
892 298 1 -0.8476 26.729241323441066 8.480331231958878 5.156022997661035 0 0 0
129 43 2 0.4238 25.84203279335724 4.704544433510318 4.462867809335331 0 0 0
512 171 2 0.4238 27.284110704429068 6.789088349518416 4.943813525177653 0 0 0
896 299 2 0.4238 25.949976406781126 6.602960647999469 8.830334645288712 0 0 0
511 171 1 -0.8476 27.311617461830334 5.804418685443756 4.790095603378341 0 0 0
466 156 1 -0.8476 26.59644416694497 4.0414773604303615 9.147177619107357 0 0 0
502 168 1 -0.8476 22.342061206721706 7.729012563620038 3.9639274598703493 0 0 0
1705 569 1 -0.8476 25.87775713625751 9.174683571775564 10.923454876489703 0 0 0
1235 412 2 0.4238 27.29186847276047 5.259959348319725 10.447723461019956 0 0 0
894 298 2 0.4238 26.528868343138033 8.567144078113412 4.223426288566907 0 0 0
603 201 2 0.4238 22.629004703289425 9.473108525277611 4.711298056160786 0 0 0
1277 426 2 0.4238 24.270969783246297 5.925536406263991 10.9144652116783 0 0 0
1664 555 2 0.4238 27.913706517498387 8.727044278080982 10.868804729501928 0 0 0
1706 569 2 0.4238 25.14553991127479 9.82666266271874 10.686840129908191 0 0 0
1234 412 1 -0.8476 27.768356520250858 5.928020316555059 10.938992019866028 0 0 0
503 168 2 0.4238 22.881886714985413 7.331120801000287 4.685670839028287 0 0 0
898 300 1 -0.8476 30.20675110449566 6.992167242696067 4.824968544973179 0 0 0
420 140 2 0.4238 31.190124735047206 4.604528110664072 5.363403350548952 0 0 0
905 302 2 0.4238 32.47936178112266 4.695317468978684 7.716634097218623 0 0 0
900 300 2 0.4238 30.14284783193351 7.665468535620507 5.470943106398718 0 0 0
1330 444 1 -0.8476 30.314311215112635 7.953907144568648 7.388233745665621 0 0 0
1332 444 2 0.4238 30.231782575252705 7.225892359271538 8.092355098848987 0 0 0
1284 428 2 0.4238 31.70935495840672 7.857206905001387 9.870797513646597 0 0 0
1282 428 1 -0.8476 32.50816750289875 8.233231074483088 9.471551746694153 0 0 0
82 28 1 -0.8476 33.70567475478478 7.352893067238963 6.472296533706751 0 0 0
1331 444 2 0.4238 30.852380857544034 8.594353031677688 7.827272075108398 0 0 0
84 28 2 0.4238 33.161824087683115 8.170992102480472 6.472177912418003 0 0 0
947 316 2 0.4238 28.9548619728621 9.178152440773138 7.445875922075663 0 0 0
86 29 2 0.4238 33.08879399284871 5.103369571284528 4.258207518689748 0 0 0
83 28 2 0.4238 33.86029622243873 6.979737807540311 5.585950276528267 0 0 0
904 302 1 -0.8476 33.15029090449129 5.254140041732804 8.099363493313732 0 0 0
906 302 2 0.4238 33.263840578156774 5.942288524306591 7.479471339399067 0 0 0
1283 428 2 0.4238 32.80435484697013 7.4709491412211335 8.959452414666462 0 0 0
850 284 1 -0.8476 29.82548827796953 5.2130421233221815 8.478956534513223 0 0 0
855 285 2 0.4238 32.87205088328355 4.843641433666949 9.776146974036672 0 0 0
853 285 1 -0.8476 32.80633703511745 4.382268612051214 10.607980032105925 0 0 0
85 29 1 -0.8476 33.81620441490405 5.6897456298556515 4.025955297610491 0 0 0
852 284 2 0.4238 30.30573768560601 5.519606438615399 9.326614984065525 0 0 0
851 284 2 0.4238 30.208898137885733 4.320530152531766 8.258090341122994 0 0 0
899 300 2 0.4238 29.49874146334775 6.365527435233751 4.960457299852874 0 0 0
418 140 1 -0.8476 31.90349671215607 4.070662953137667 4.9723703937525405 0 0 0
1328 443 2 0.4238 33.616113009644216 9.475781569193582 10.199134359444166 0 0 0
1663 555 1 -0.8476 28.69362993419502 8.977871987862262 10.428243821112988 0 0 0
946 316 1 -0.8476 28.61315149233868 9.954133365680413 6.906169239091179 0 0 0
1665 555 2 0.4238 29.077865741733458 9.78581672962763 10.865501900189244 0 0 0
1236 412 2 0.4238 28.623024505205578 6.035322508749598 10.538079425886444 0 0 0
901 301 1 -0.8476 30.34110013180583 6.9179430205004895 10.687644980052461 0 0 0
903 301 2 0.4238 29.835248682563495 7.78764864445454 10.720610157345586 0 0 0
471 157 2 0.4238 38.48788300970304 4.553371407435387 4.011912049591789 0 0 0
90 30 2 0.4238 37.32806261528229 4.947859899974105 6.875429934692789 0 0 0
861 287 2 0.4238 35.50548845564887 6.728616983184546 7.1201963852278185 0 0 0
37 13 1 -0.8476 36.8670493717716 7.842498767673741 5.120097534743182 0 0 0
39 13 2 0.4238 37.76556887272733 8.161474751017519 4.860307336856895 0 0 0
38 13 2 0.4238 36.92600243681282 6.954201331875355 4.668164813628085 0 0 0
89 30 2 0.4238 38.615360728386875 4.823082413680499 7.651844966946021 0 0 0
859 287 1 -0.8476 35.91734261728383 6.012462998893561 7.6439162953133675 0 0 0
860 287 2 0.4238 35.1914453282374 5.42122739879953 7.838624721205073 0 0 0
806 269 2 0.4238 37.82999826893939 5.625309846304469 9.921787356802671 0 0 0
1290 430 2 0.4238 38.75166597443692 8.835844789737266 7.792736430674944 0 0 0
470 157 2 0.4238 39.13188148635122 4.7706545871377335 5.47746857766445 0 0 0
1289 430 2 0.4238 38.7828372038711 7.67011131319668 6.869346113503504 0 0 0
88 30 1 -0.8476 38.12319253462449 4.332418359338317 6.959819070130605 0 0 0
469 157 1 -0.8476 39.27517291061592 4.676190017856623 4.570557461499914 0 0 0
1288 430 1 -0.8476 39.29731839884282 8.121401364359661 7.502086146762264 0 0 0
951 317 2 0.4238 37.28094541565085 9.507450824807343 9.262068818944957 0 0 0
805 269 1 -0.8476 37.26168228553952 5.536517293975433 10.674874539211014 0 0 0
949 317 1 -0.8476 37.69156157911367 9.869997422682513 8.468006041755778 0 0 0
473 158 2 0.4238 39.78111378736712 6.754843991571832 8.640550725058407 0 0 0
1335 445 2 0.4238 35.64546625237112 6.235864828582887 10.532103980406013 0 0 0
1287 429 2 0.4238 37.8222048868131 7.409199618252247 10.622498003330305 0 0 0
472 158 1 -0.8476 39.979332841520616 5.849546808145007 8.887954434799122 0 0 0
135 45 2 0.4238 39.81593807142977 9.213447252474793 4.28677907186669 0 0 0
1327 443 1 -0.8476 34.454445696708376 9.948460135477628 10.354861751949372 0 0 0
1334 445 2 0.4238 34.72383905637818 7.52998984962538 10.49599419162223 0 0 0
1285 429 1 -0.8476 37.60020616838277 8.317068322711796 10.849160452968157 0 0 0
1333 445 1 -0.8476 34.73701878316335 6.563390381439564 10.692230206474356 0 0 0
811 271 1 -0.8476 45.81913178350035 4.469645267153199 7.037116975534085 0 0 0
474 158 2 0.4238 40.573037549556005 6.088881761327746 9.626855753311554 0 0 0
910 304 1 -0.8476 41.958486467898055 9.07069870791604 7.576214364282528 0 0 0
912 304 2 0.4238 42.28802466258078 9.207971458740527 6.713796698138342 0 0 0
911 304 2 0.4238 41.01408083859404 8.812402151551941 7.506845077902379 0 0 0
475 159 1 -0.8476 44.4250513412576 6.7729231448999645 5.734142774411366 0 0 0
393 131 2 0.4238 45.174967590688496 7.045279213197572 9.142464311318 -1 0 0
477 159 2 0.4238 44.57785131197889 7.659042615313442 6.137594101161006 0 0 0
863 288 2 0.4238 41.46207011644482 5.898197162580485 7.460902466936476 0 0 0
812 271 2 0.4238 45.31971071854983 5.2928450216567136 6.923920260867355 0 0 0
1244 415 2 0.4238 42.790760878127486 8.300025612505658 8.87073796160649 0 0 0
1243 415 1 -0.8476 43.53892877077219 8.237080860717594 9.505260673094131 0 0 0
1245 415 2 0.4238 43.62184982718597 9.09698341645548 9.876617133941345 0 0 0
864 288 2 0.4238 42.18199873834038 4.655997937585329 6.778180262684161 0 0 0
476 159 2 0.4238 43.49950955924268 6.545200184455891 5.93850082354849 0 0 0
862 288 1 -0.8476 41.93237600876762 5.62056638396152 6.622790913465994 0 0 0
1632 544 2 0.4238 42.42250842029175 7.060629588641778 10.256013695587544 0 0 0
429 143 2 0.4238 41.637047247050944 6.46995841799637 4.798319023526047 0 0 0
428 143 2 0.4238 40.4790590079388 5.739932562493871 4.224250430819478 0 0 0
813 271 2 0.4238 45.94260477745679 4.0968102405384625 6.181762271695803 0 0 0
1630 544 1 -0.8476 41.834631574633974 6.479553484537428 10.782531568760032 0 0 0
427 143 1 -0.8476 41.092048598354054 6.452917227802283 3.9950503049786485 0 0 0
143 48 2 0.4238 45.56965927187342 9.7700094855788 6.257109012762678 0 0 0
1013 338 2 0.4238 8.866852974025793 10.093100508085286 9.81696379565724 0 0 0
971 324 2 0.4238 6.235491410534461 11.907151218870325 8.971220400504201 0 0 0
531 177 2 0.4238 6.929490668518817 10.418754886407942 7.015338357035084 0 0 0
529 177 1 -0.8476 6.088040929910086 10.697552172734643 7.445225142009937 0 0 0
574 192 1 -0.8476 4.586050892943732 13.081631996685694 6.935755085914182 1 0 0
537 179 2 0.4238 7.30472004065844 13.311554707799209 7.557824451510752 0 0 0
959 320 2 0.4238 5.206594283075889 14.698672594305378 8.0434239901906 1 0 0
958 320 1 -0.8476 5.742137415046997 15.467765716680685 8.147814902392986 1 0 0
576 192 2 0.4238 5.083923274447922 12.27011382315471 6.739141143847672 1 0 0
970 324 1 -0.8476 6.837867962923425 12.36604925595614 9.548608691621531 0 0 0
532 178 1 -0.8476 6.302735886365447 14.492484677275302 4.4024025875077335 0 0 0
534 178 2 0.4238 6.597621673293965 14.403422696440918 5.310010476838348 0 0 0
972 324 2 0.4238 7.507697977125788 11.702469561641323 9.65267882850958 0 0 0
527 176 2 0.4238 6.118050607908369 13.054457807448475 10.891027883792134 1 0 0
535 179 1 -0.8476 7.721562083557576 13.276294975923955 6.67159824154391 0 0 0
536 179 2 0.4238 7.942583781081259 12.3712533515789 6.667071588637054 0 0 0
533 178 2 0.4238 6.103464796748613 15.445695520397113 4.134902963607375 0 0 0
1252 418 1 -0.8476 9.058112152847482 13.696338668109838 10.965118728238062 0 0 0
575 192 2 0.4238 4.418731456336303 13.507977386376469 6.088458925839753 1 0 0
1253 418 2 0.4238 8.896734112419843 14.643719220096362 10.858893084980124 0 0 0
921 307 2 0.4238 8.832165958146899 14.773907909550655 6.5665028037692945 0 0 0
541 181 1 -0.8476 8.434473917946471 10.25128566194149 6.518977792862577 0 0 0
491 164 2 0.4238 9.598599966169017 11.870621171895237 4.498814106926595 0 0 0
543 181 2 0.4238 9.341877325470108 10.401000623599995 6.851476455355012 0 0 0
919 307 1 -0.8476 9.513857306086514 15.487926838628406 6.614457025160555 0 0 0
924 308 2 0.4238 9.66670511365015 12.387781441032196 9.711401756429524 0 0 0
1343 448 2 0.4238 4.486646820909868 15.01938276753871 10.517299185205212 1 0 0
922 308 1 -0.8476 9.815830858261883 11.456607842258371 9.443008757728478 0 0 0
1342 448 1 -0.8476 4.117964098899717 15.883188542662742 10.787121083684976 1 0 0
528 176 2 0.4238 6.362041678091793 14.427974050340161 10.90810643448507 1 0 0
446 149 2 0.4238 13.876543535946679 10.058326034959343 5.600915294029688 0 0 0
1357 453 1 -0.8476 11.065813466065094 10.668568678823618 7.171620911679179 0 0 0
1359 453 2 0.4238 11.12337759550331 11.465470424470077 6.685026525588587 0 0 0
1358 453 2 0.4238 11.017018730239478 11.054011986324614 8.061430337957244 0 0 0
1314 438 2 0.4238 14.404017070335097 12.412401532409556 5.266621711352883 0 0 0
1312 438 1 -0.8476 13.833116859684532 12.675268364519848 4.501511233823617 0 0 0
923 308 2 0.4238 10.55388238337483 11.201473799393051 10.008487741101725 0 0 0
1742 581 2 0.4238 13.170968172745631 12.74257318688061 8.452538157047577 0 0 0
1741 581 1 -0.8476 13.378776095822376 13.402093159417582 7.8399521275785045 0 0 0
1743 581 2 0.4238 12.921418144281066 14.192298083238642 8.06161924244168 0 0 0
1406 469 2 0.4238 14.94303435037721 14.039763759933228 8.131429886039186 0 0 0
1360 454 1 -0.8476 13.478186774638276 11.234227286852384 9.62263832186725 0 0 0
1361 454 2 0.4238 14.23798615645928 11.665114190032678 10.032279211579118 0 0 0
920 307 2 0.4238 10.139037708593328 15.36522651655737 5.821985738445703 0 0 0
584 195 2 0.4238 10.78256262125829 15.436305702075375 8.00815057958075 0 0 0
973 325 1 -0.8476 10.592027020052129 15.247573072886647 4.114468869747393 0 0 0
583 195 1 -0.8476 11.687481699476596 15.727897270498529 8.328561675181923 0 0 0
1405 469 1 -0.8476 15.59300985443884 14.822277130901522 8.263795616384996 0 0 0
1264 422 1 -0.8476 15.816546191583237 11.003761427338521 6.2167736576438175 0 0 0
1362 454 2 0.4238 12.722461003203334 11.153561635732022 10.248905658111797 0 0 0
492 164 2 0.4238 10.390672450318421 13.304358146870076 4.618295819753699 0 0 0
490 164 1 -0.8476 10.435624569065075 12.32258144255409 4.58610152959259 0 0 0
582 194 2 0.4238 14.408317597094822 15.846927232025628 7.379023228120314 0 0 0
1313 438 2 0.4238 13.529345171332006 11.876440371603259 4.099097541939471 0 0 0
1364 455 2 0.4238 20.272540414389127 14.403487470660284 4.664324753470284 0 0 0
1225 409 1 -0.8476 20.257142674102642 11.467016133660673 10.812423187746266 0 0 0
116 39 2 0.4238 20.577562979205116 10.906459560146825 4.661725500455009 0 0 0
1266 422 2 0.4238 16.198376186039155 10.32544031895388 5.5706846670755965 0 0 0
1265 422 2 0.4238 16.19587202100654 10.829070776200927 7.078639287137001 0 0 0
117 39 2 0.4238 19.148258173790374 11.367113090521908 4.132594503224536 0 0 0
933 311 2 0.4238 17.191832562846635 12.368943115939892 4.86560875887378 0 0 0
1700 567 2 0.4238 18.386345873965947 10.801091676242322 8.298105931806601 0 0 0
931 311 1 -0.8476 18.031011366178998 12.662407639732105 4.498362655839682 0 0 0
932 311 2 0.4238 18.280429845764548 13.433467302546884 5.0419198522291735 0 0 0
1366 456 1 -0.8476 19.801800364505148 12.040667036232804 8.024751518750112 0 0 0
977 326 2 0.4238 18.333361137544586 15.162365847757963 7.051889119684999 0 0 0
978 326 2 0.4238 18.530680960681913 13.792245568044457 7.585727173374861 0 0 0
555 185 2 0.4238 21.25982904496798 14.587208217218867 6.3447523456937756 0 0 0
976 326 1 -0.8476 18.3236831544046 14.241761486627807 6.759131892624515 0 0 0
554 185 2 0.4238 20.674274421312223 13.277839185211258 6.79252980204909 0 0 0
553 185 1 -0.8476 21.24475027086592 13.627194208564909 6.144722730820593 0 0 0
1699 567 1 -0.8476 17.569850569192468 10.325997103688842 8.454409265742584 0 0 0
1407 469 2 0.4238 16.327310945183932 14.579492585079707 7.66195764145703 0 0 0
1789 597 1 -0.8476 18.305336213550405 14.033986705632346 9.799336289764046 0 0 0
1790 597 2 0.4238 17.51131575491585 13.453955694500678 9.91225388994129 0 0 0
1368 456 2 0.4238 20.575596770178066 11.461978925136869 7.986253972695026 0 0 0
1367 456 2 0.4238 19.886684964121745 12.545399256814873 8.849500953267867 0 0 0
1791 597 2 0.4238 17.98449820084891 14.927355288811977 10.077071010979186 0 0 0
115 39 1 -0.8476 19.891794911407338 10.712503605402272 4.044679206072584 0 0 0
1272 424 2 0.4238 16.75377555538959 11.294755281695956 9.905614969695499 0 0 0
1270 424 1 -0.8476 16.276642420801274 12.081754321723825 10.284337433904215 0 0 0
1227 409 2 0.4238 21.158573366083093 11.501350159695876 10.341558813764237 0 0 0
1799 600 2 0.4238 21.127982565982975 15.475436779881202 10.950816568775991 0 0 0
1365 455 2 0.4238 19.41193121031646 15.523890437047337 4.0487085415834185 0 0 0
1750 584 1 -0.8476 22.166480495217282 13.082062661942455 9.293137459608047 0 0 0
1752 584 2 0.4238 22.684837488339916 13.254827796429115 8.513026528788421 0 0 0
601 201 1 -0.8476 22.39722584351795 10.1699745861097 5.3322827066046 0 0 0
602 201 2 0.4238 23.097553299922247 10.831987577099422 5.068496051655149 0 0 0
1318 440 1 -0.8476 22.146264027822284 10.309364184495923 8.190398494961284 0 0 0
1319 440 2 0.4238 22.49078257298966 10.360121814798468 7.286412359347768 0 0 0
1321 441 1 -0.8476 24.51856620234277 11.031406358558108 9.49524315428442 0 0 0
1323 441 2 0.4238 24.199237079300186 11.725834101587136 10.116045285926488 0 0 0
1322 441 2 0.4238 23.732702876772738 10.917886646739056 8.935688394958587 0 0 0
219 73 2 0.4238 23.550993329225065 13.14494488378749 6.000777833711833 0 0 0
217 73 1 -0.8476 24.179715331157293 13.299528725031962 6.711765597666696 0 0 0
1419 473 2 0.4238 27.207259268365775 15.018184358445305 9.640232115161034 0 0 0
989 330 2 0.4238 27.133249181608274 12.836437679438513 6.158868063139101 0 0 0
218 73 2 0.4238 24.9802621074968 13.55216351965237 6.260236542506261 0 0 0
1751 584 2 0.4238 22.41421661281013 13.76311976369839 9.943571010130796 0 0 0
987 329 2 0.4238 25.14258950862662 14.626995335863743 8.420638016963542 0 0 0
1373 458 2 0.4238 26.1328512492101 11.691180090271507 8.357275161974966 0 0 0
988 330 1 -0.8476 26.79944533206652 13.534163445808344 5.524614353308541 0 0 0
1372 458 1 -0.8476 26.883708981854777 11.974129424555526 7.860880168788516 0 0 0
1374 458 2 0.4238 27.442924929443112 12.424472553443781 8.508206482124372 0 0 0
985 329 1 -0.8476 25.531509145015832 15.08807125149483 9.196120332459586 0 0 0
272 91 2 0.4238 27.13709174885425 15.152551071242264 5.7374344274910465 0 0 0
990 330 2 0.4238 27.476166954193467 13.536381060801943 4.82508317333719 0 0 0
600 200 2 0.4238 25.203329444804364 12.172345194936321 4.4978191019720795 0 0 0
598 200 1 -0.8476 24.397690481063297 11.894734038261603 4.108354322213234 0 0 0
948 316 2 0.4238 27.708446523294818 10.12029921006508 7.233853839662638 0 0 0
939 313 2 0.4238 24.426910521366064 14.699217012961153 10.639796622388626 0 0 0
177 59 2 0.4238 29.963063973528484 10.150359947613733 4.8352466274822525 0 0 0
1417 473 1 -0.8476 28.1302634219432 14.818092020932003 9.9246785867022 0 0 0
2193 731 2 0.4238 29.281881463250535 14.305040628906426 8.69372126079485 0 0 0
1371 457 2 0.4238 30.672003564725735 12.6049290967305 5.398906858921059 0 0 0
1369 457 1 -0.8476 31.181870003329397 12.309131661173808 6.135286491936682 0 0 0
2191 731 1 -0.8476 29.956773922287315 13.750519412166339 8.284064687595272 0 0 0
2192 731 2 0.4238 30.419762746775667 14.406474987250085 7.686272395157275 0 0 0
564 188 2 0.4238 32.216633506502035 10.989183508792596 6.815543517991467 0 0 0
563 188 2 0.4238 32.42166113390789 10.846824993595966 8.288021272315557 0 0 0
562 188 1 -0.8476 32.731597041342965 10.451238055956548 7.463046993546207 0 0 0
1370 457 2 0.4238 30.479962106746868 12.29314470739641 6.795304723339843 0 0 0
994 332 1 -0.8476 32.95760756491367 14.30818121817348 5.181070023367542 0 0 0
1808 603 2 0.4238 31.139584098932218 13.396723582846308 9.523951310391077 0 0 0
1807 603 1 -0.8476 31.717169567187184 12.89683547491977 10.170692359080942 0 0 0
1809 603 2 0.4238 32.63498802671735 12.971452221047894 9.902776888259822 0 0 0
995 332 2 0.4238 32.747267581899756 13.338844097066668 5.112167284397522 0 0 0
996 332 2 0.4238 33.84651705074502 14.456659209384139 4.762789152154241 0 0 0
1418 473 2 0.4238 28.504871017149288 15.689182674845465 10.169833679412225 0 0 0
1376 459 2 0.4238 32.80411465167229 15.477194439789425 6.97558621007439 0 0 0
1375 459 1 -0.8476 31.909590606904665 15.541895633272757 7.33046401044024 0 0 0
1377 459 2 0.4238 31.99930229571753 15.870480657826837 8.254720524439932 0 0 0
176 59 2 0.4238 31.111338448508462 10.596731907312073 3.9807644294952182 0 0 0
178 60 1 -0.8476 29.47569587972743 13.328311397656762 4.0322570605498305 0 0 0
609 203 2 0.4238 31.906832774479405 15.08678144336304 4.210405206791229 0 0 0
950 317 2 0.4238 36.92326400403914 10.174195486354137 7.866297433931657 0 0 0
611 204 2 0.4238 34.516462187128255 10.561742447059986 7.236968654136044 0 0 0
1711 571 1 -0.8476 34.42415077859731 13.166780904786142 9.835314893455951 0 0 0
1713 571 2 0.4238 34.567660803179635 12.211424797735818 9.93921567914905 0 0 0
610 204 1 -0.8476 35.47407039716277 10.546502985630896 7.112297990861318 0 0 0
1712 571 2 0.4238 35.07676314976544 13.404399610413211 9.172980366172691 0 0 0
612 204 2 0.4238 35.51139818500423 10.540386518102785 6.109869463332808 0 0 0
1045 349 1 -0.8476 36.13703674515148 13.558776528978637 7.521464815773357 0 0 0
187 63 1 -0.8476 38.59518697916771 11.569012903272444 5.660845033164847 0 0 0
189 63 2 0.4238 38.55184578364461 11.9247567321496 6.569787895039429 0 0 0
236 79 2 0.4238 38.49275913103084 12.666758272662486 9.552328006973244 0 0 0
235 79 1 -0.8476 38.971575861102764 12.105781095371853 8.828899126426341 0 0 0
237 79 2 0.4238 38.62854359302081 11.218509189003647 8.725829419944375 0 0 0
1000 334 1 -0.8476 37.89478414772084 14.638632495841495 9.559924766945311 0 0 0
1046 349 2 0.4238 36.045557472305376 12.674644249681185 7.146271102221694 0 0 0
1047 349 2 0.4238 36.95787207422478 13.688128042455043 8.11817809537493 0 0 0
671 224 2 0.4238 39.65325815758986 14.058530825511136 7.423446723155813 0 0 0
1001 334 2 0.4238 38.770948342125635 15.011915317907869 9.460639203870507 0 0 0
1002 334 2 0.4238 37.470070214485546 15.111647488237907 10.301868501356449 0 0 0
188 63 2 0.4238 39.48563996865863 11.89029869030962 5.35599184332304 0 0 0
521 174 2 0.4238 37.569428912679 11.974431830669731 4.1898554033967095 0 0 0
708 236 2 0.4238 35.14245662664671 15.07903579553955 7.350661321017676 0 0 0
1050 350 2 0.4238 38.08829989903694 15.846419406401825 5.290202393053956 0 0 0
658 220 1 -0.8476 35.249865246071714 15.234271221318144 4.136017939709232 0 0 0
44 15 2 0.4238 43.168913556230095 10.266261315850763 4.85805762707761 0 0 0
1676 559 2 0.4238 45.69871751250146 10.323445670649233 10.75971642648057 0 0 0
670 224 1 -0.8476 40.02774612093323 14.878414123139992 7.756997524564969 0 0 0
291 97 2 0.4238 44.19853416669265 14.089468944673408 4.686865575490603 -1 0 0
672 224 2 0.4238 40.80197198629571 14.510865764506095 8.196627663210357 0 0 0
43 15 1 -0.8476 42.24332413998842 10.056337363326715 4.657622827294912 0 0 0
572 191 2 0.4238 41.037855602072725 13.103360863518578 4.326453579316859 0 0 0
142 48 1 -0.8476 44.68130653497593 10.164213230571537 6.073001194944331 0 0 0
284 95 2 0.4238 42.099413803415516 15.862441896882132 5.125031786203932 0 0 0
621 207 2 0.4238 40.75612523903591 12.180101013287116 9.557812417860246 0 0 0
523 175 1 -0.8476 45.273108280154446 12.62172674220274 4.424525330501325 0 0 0
144 48 2 0.4238 44.36242233529336 10.627930173003524 6.918856740892943 0 0 0
619 207 1 -0.8476 41.657851577528504 12.564636748452902 9.756946748402783 0 0 0
1295 432 2 0.4238 44.79014079219863 11.542681757734904 8.933498960230727 0 0 0
525 175 2 0.4238 45.15336790999699 11.713668973362495 4.681358151986843 0 0 0
571 191 1 -0.8476 41.110066040905636 12.577492248893124 5.162405768174549 0 0 0
573 191 2 0.4238 41.62424867737313 13.072461704098144 5.785557976524441 0 0 0
1296 432 2 0.4238 45.311422659914484 12.517975747666187 7.712443622239308 0 0 0
1294 432 1 -0.8476 44.559392458434075 12.059297824347643 8.160689712223379 0 0 0
955 319 1 -0.8476 42.45374625482076 13.973629007893972 7.270840165553254 0 0 0
957 319 2 0.4238 42.98542018971635 13.252312665624986 7.597108247880392 0 0 0
1675 559 1 -0.8476 44.81808556513967 10.73265903054929 10.594803550655019 0 0 0