9
# CELL(abcABC): 1000.00000  1000.00000  1000.00000    90.00000    90.00000    90.00000  Step:           0  Bead:       0 positions{angstrom}  cell{angstrom}
       O -1.58972e+00  1.04338e+00 -8.78084e-02
       H -6.35920e-01  9.78985e-01  0.00000e+00
       H -1.90066e+00  1.74501e+00 -6.64550e-01
       O  1.64925e+00  1.08595e+00  0.00000e+00
       H  2.60878e+00  1.09588e+00 -2.81711e-02
       H  1.33831e+00  1.78758e+00  5.76742e-01
       O -6.13152e-01  2.46976e+00  2.07005e+00
       H  3.46848e-01  2.46976e+00  2.07005e+00
       H -9.33607e-01  3.37470e+00  2.07005e+00
9
# CELL(abcABC): 1000.00000  1000.00000  1000.00000    90.00000    90.00000    90.00000  Step:           1  Bead:       0 positions{angstrom}  cell{angstrom}
       O -1.63122e+00  1.00604e+00 -8.60920e-02
       H -6.54513e-01  1.00835e+00 -2.93035e-02
       H -1.85325e+00  1.73696e+00 -6.58460e-01
       O  1.63546e+00  1.07772e+00 -4.61507e-03
       H  2.59569e+00  1.10865e+00 -1.69583e-02
       H  1.36588e+00  1.78463e+00  5.64642e-01
       O -6.07097e-01  2.45829e+00  2.07572e+00
       H  3.31048e-01  2.49772e+00  2.09100e+00
       H -9.11876e-01  3.37263e+00  2.07043e+00
9
# CELL(abcABC): 1000.00000  1000.00000  1000.00000    90.00000    90.00000    90.00000  Step:           2  Bead:       0 positions{angstrom}  cell{angstrom}
       O -1.63601e+00  9.75277e-01 -8.81846e-02
       H -6.92329e-01  1.02543e+00 -4.96214e-02
       H -1.82345e+00  1.73439e+00 -6.57167e-01
       O  1.63328e+00  1.06277e+00 -1.54802e-02
       H  2.58322e+00  1.11586e+00 -1.03998e-02
       H  1.38106e+00  1.79403e+00  5.63670e-01
       O -6.26346e-01  2.45766e+00  2.07980e+00
       H  3.45908e-01  2.52059e+00  2.11265e+00
       H -8.95205e-01  3.36501e+00  2.07109e+00
9
# CELL(abcABC): 1000.00000  1000.00000  1000.00000    90.00000    90.00000    90.00000  Step:           3  Bead:       0 positions{angstrom}  cell{angstrom}
       O -1.63335e+00  9.89497e-01 -9.27085e-02
       H -6.77467e-01  1.01591e+00 -3.98132e-02
       H -1.83770e+00  1.73375e+00 -6.56840e-01
       O  1.63325e+00  1.07007e+00 -1.01495e-02
       H  2.59007e+00  1.11165e+00 -1.41635e-02
       H  1.37402e+00  1.79048e+00  5.63482e-01
       O -6.15097e-01  2.45713e+00  2.07850e+00
       H  3.40172e-01  2.51159e+00  2.10707e+00
       H -9.03795e-01  3.37090e+00  2.07099e+00
9
# CELL(abcABC): 1000.00000  1000.00000  1000.00000    90.00000    90.00000    90.00000  Step:           4  Bead:       0 positions{angstrom}  cell{angstrom}
       O -1.63458e+00  9.87482e-01 -9.73100e-02
       H -6.78148e-01  1.01404e+00 -3.91777e-02
       H -1.83865e+00  1.73389e+00 -6.57367e-01
       O  1.63301e+00  1.07089e+00 -9.51502e-03
       H  2.59024e+00  1.11059e+00 -1.50112e-02
       H  1.37411e+00  1.79108e+00  5.62532e-01
       O -6.11932e-01  2.45828e+00  2.07896e+00
       H  3.40350e-01  2.51330e+00  2.11201e+00
       H -9.04282e-01  3.37144e+00  2.07125e+00
9
# CELL(abcABC): 1000.00000  1000.00000  1000.00000    90.00000    90.00000    90.00000  Step:           5  Bead:       0 positions{angstrom}  cell{angstrom}
       O -1.65296e+00  9.51619e-01 -1.62014e-01
       H -6.95287e-01  9.91058e-01 -3.43096e-02
       H -1.84632e+00  1.73632e+00 -6.65298e-01
       O  1.62965e+00  1.07715e+00 -4.45540e-03
       H  2.58985e+00  1.09722e+00 -2.55339e-02
       H  1.37789e+00  1.80361e+00  5.50470e-01
       O -5.78452e-01  2.47318e+00  2.08531e+00
       H  3.53249e-01  2.54306e+00  2.18712e+00
       H -9.07514e-01  3.37779e+00  2.07508e+00
9
# CELL(abcABC): 1000.00000  1000.00000  1000.00000    90.00000    90.00000    90.00000  Step:           6  Bead:       0 positions{angstrom}  cell{angstrom}
       O -1.69269e+00  8.64247e-01 -3.10271e-01
       H -7.45636e-01  9.41421e-01 -2.81927e-02
       H -1.85754e+00  1.74094e+00 -6.82015e-01
       O  1.62200e+00  1.08491e+00  2.62517e-03
       H  2.58542e+00  1.06882e+00 -4.77001e-02
       H  1.38948e+00  1.83727e+00  5.24460e-01
       O -5.11887e-01  2.50447e+00  2.09622e+00
       H  3.91293e-01  2.61792e+00  2.36698e+00
       H -9.10313e-01  3.39101e+00  2.08427e+00
9
# CELL(abcABC): 1000.00000  1000.00000  1000.00000    90.00000    90.00000    90.00000  Step:           7  Bead:       0 positions{angstrom}  cell{angstrom}
       O -1.71738e+00  7.76429e-01 -4.95331e-01
       H -8.40040e-01  8.74645e-01 -3.30783e-02
       H -1.86674e+00  1.72702e+00 -6.93521e-01
       O  1.61625e+00  1.08355e+00  4.94758e-03
       H  2.57107e+00  1.03700e+00 -7.25249e-02
       H  1.40703e+00  1.88770e+00  4.95190e-01
       O -4.20529e-01  2.54981e+00  2.10348e+00
       H  4.23519e-01  2.71805e+00  2.59954e+00
       H -9.03071e-01  3.39680e+00  2.09767e+00
9
# CELL(abcABC): 1000.00000  1000.00000  1000.00000    90.00000    90.00000    90.00000  Step:           8  Bead:       0 positions{angstrom}  cell{angstrom}
       O -1.68129e+00  8.29953e-01 -4.25366e-01
       H -8.34370e-01  8.86924e-01 -4.24690e-02
       H -1.86624e+00  1.71549e+00 -6.88019e-01
       O  1.61857e+00  1.07907e+00  1.05884e-03
       H  2.57089e+00  1.05035e+00 -6.25181e-02
       H  1.40312e+00  1.87409e+00  5.06587e-01
       O -4.46135e-01  2.54477e+00  2.10218e+00
       H  4.01026e-01  2.68707e+00  2.51939e+00
       H -8.95456e-01  3.38328e+00  2.09552e+00
9
# CELL(abcABC): 1000.00000  1000.00000  1000.00000    90.00000    90.00000    90.00000  Step:           9  Bead:       0 positions{angstrom}  cell{angstrom}
       O -1.69359e+00  8.13863e-01 -4.48176e-01
       H -8.29072e-01  8.78490e-01 -3.49657e-02
       H -1.87215e+00  1.72272e+00 -6.93137e-01
       O  1.61588e+00  1.08282e+00  3.87009e-03
       H  2.57163e+00  1.04630e+00 -6.59400e-02
       H  1.40425e+00  1.87623e+00  5.02105e-01
       O -4.36474e-01  2.54687e+00  2.10169e+00
       H  4.06941e-01  2.69676e+00  2.54354e+00
       H -8.97295e-01  3.38693e+00  2.09738e+00
9
# CELL(abcABC): 1000.00000  1000.00000  1000.00000    90.00000    90.00000    90.00000  Step:          10  Bead:       0 positions{angstrom}  cell{angstrom}
       O -1.69523e+00  8.02521e-01 -4.76958e-01
       H -8.44099e-01  8.64869e-01 -3.54240e-02
       H -1.87576e+00  1.72022e+00 -6.96167e-01
       O  1.61370e+00  1.08245e+00  4.35173e-03
       H  2.56785e+00  1.04255e+00 -6.91976e-02
       H  1.40820e+00  1.88357e+00  4.96996e-01
       O -4.18513e-01  2.55344e+00  2.10142e+00
       H  4.08081e-01  2.71418e+00  2.58043e+00
       H -8.94110e-01  3.38720e+00  2.10091e+00
9
# CELL(abcABC): 1000.00000  1000.00000  1000.00000    90.00000    90.00000    90.00000  Step:          11  Bead:       0 positions{angstrom}  cell{angstrom}
       O -1.69779e+00  7.81017e-01 -5.46428e-01
       H -8.78684e-01  8.27028e-01 -3.48083e-02
       H -1.88689e+00  1.71207e+00 -7.05381e-01
       O  1.60280e+00  1.08268e+00  6.49276e-03
       H  2.55732e+00  1.03667e+00 -7.53867e-02
       H  1.42071e+00  1.89804e+00  4.83127e-01
       O -3.68221e-01  2.57148e+00  2.09969e+00
       H  4.01481e-01  2.75864e+00  2.66685e+00
       H -8.80611e-01  3.38338e+00  2.11221e+00
9
# CELL(abcABC): 1000.00000  1000.00000  1000.00000    90.00000    90.00000    90.00000  Step:          12  Bead:       0 positions{angstrom}  cell{angstrom}
       O -1.69661e+00  7.77857e-01 -5.58038e-01
       H -8.84505e-01  8.15105e-01 -3.58063e-02
       H -1.89174e+00  1.71182e+00 -7.09646e-01
       O  1.60212e+00  1.08202e+00  6.74000e-03
       H  2.55008e+00  1.03682e+00 -7.59121e-02
       H  1.42320e+00  1.90120e+00  4.80709e-01
       O -3.46603e-01  2.57389e+00  2.09952e+00
       H  3.91943e-01  2.76786e+00  2.68305e+00
       H -8.77765e-01  3.38444e+00  2.11575e+00
9
# CELL(abcABC): 1000.00000  1000.00000  1000.00000    90.00000    90.00000    90.00000  Step:          13  Bead:       0 positions{angstrom}  cell{angstrom}
       O -1.69458e+00  7.76986e-01 -5.78347e-01
       H -8.97096e-01  7.98279e-01 -3.77858e-02
       H -1.89668e+00  1.70563e+00 -7.14053e-01
       O  1.59448e+00  1.08309e+00  8.47565e-03
       H  2.54582e+00  1.03655e+00 -7.72591e-02
       H  1.42822e+00  1.90423e+00  4.75488e-01
       O -3.25152e-01  2.58411e+00  2.09690e+00
       H  3.83894e-01  2.78370e+00  2.71217e+00
       H -8.68799e-01  3.37842e+00  2.12077e+00
9
# CELL(abcABC): 1000.00000  1000.00000  1000.00000    90.00000    90.00000    90.00000  Step:          14  Bead:       0 positions{angstrom}  cell{angstrom}
       O -1.69290e+00  7.71604e-01 -6.06217e-01
       H -9.13828e-01  7.75603e-01 -4.18792e-02
       H -1.90325e+00  1.69965e+00 -7.20337e-01
       O  1.58750e+00  1.08374e+00  1.03840e-02
       H  2.53889e+00  1.03421e+00 -8.04182e-02
       H  1.43171e+00  1.91125e+00  4.70366e-01
       O -2.92851e-01  2.60046e+00  2.09370e+00
       H  3.75299e-01  2.80299e+00  2.75502e+00
       H -8.60457e-01  3.37150e+00  2.12575e+00
9
# CELL(abcABC): 1000.00000  1000.00000  1000.00000    90.00000    90.00000    90.00000  Step:          15  Bead:       0 positions{angstrom}  cell{angstrom}
       O -1.69230e+00  7.67302e-01 -6.31501e-01
       H -9.28873e-01  7.51154e-01 -5.04076e-02
       H -1.90920e+00  1.69202e+00 -7.26912e-01
       O  1.57807e+00  1.08834e+00  1.52177e-02
       H  2.53371e+00  1.02964e+00 -8.56958e-02
       H  1.42969e+00  1.91735e+00  4.66835e-01
       O -2.49258e-01  2.62401e+00  2.09024e+00
       H  3.65869e-01  2.81685e+00  2.80131e+00
       H -8.57599e-01  3.36433e+00  2.12728e+00
9
# CELL(abcABC): 1000.00000  1000.00000  1000.00000    90.00000    90.00000    90.00000  Step:          16  Bead:       0 positions{angstrom}  cell{angstrom}
       O -1.69362e+00  7.56771e-01 -6.71676e-01
       H -9.50376e-01  7.14408e-01 -6.44066e-02
       H -1.91764e+00  1.68213e+00 -7.36409e-01
       O  1.57021e+00  1.09217e+00  2.06201e-02
       H  2.51967e+00  1.02238e+00 -9.38672e-02
       H  1.42417e+00  1.93036e+00  4.64334e-01
       O -1.81371e-01  2.66614e+00  2.08534e+00
       H  3.52264e-01  2.83633e+00  2.87439e+00
       H -8.53197e-01  3.35032e+00  2.12805e+00
9
# CELL(abcABC): 1000.00000  1000.00000  1000.00000    90.00000    90.00000    90.00000  Step:          17  Bead:       0 positions{angstrom}  cell{angstrom}
       O -1.69786e+00  7.49616e-01 -6.78392e-01
       H -9.50750e-01  6.90593e-01 -8.85246e-02
       H -1.92048e+00  1.67833e+00 -7.42037e-01
       O  1.56363e+00  1.09794e+00  2.79232e-02
       H  2.50649e+00  1.01704e+00 -1.01617e-01
       H  1.40387e+00  1.93798e+00  4.73805e-01
       O -1.14091e-01  2.72792e+00  2.08342e+00
       H  3.33844e-01  2.82676e+00  2.91427e+00
       H -8.54530e-01  3.32483e+00  2.11752e+00
9
# CELL(abcABC): 1000.00000  1000.00000  1000.00000    90.00000    90.00000    90.00000  Step:          18  Bead:       0 positions{angstrom}  cell{angstrom}
       O -1.69928e+00  7.46386e-01 -6.86837e-01
       H -9.54164e-01  6.81113e-01 -9.40475e-02
       H -1.92214e+00  1.67618e+00 -7.44348e-01
       O  1.56029e+00  1.09965e+00  3.00565e-02
       H  2.50252e+00  1.01549e+00 -1.03919e-01
       H  1.40076e+00  1.94062e+00  4.74367e-01
       O -9.26533e-02  2.74311e+00  2.08191e+00
       H  3.28694e-01  2.82922e+00  2.93266e+00
       H -8.53907e-01  3.31924e+00  2.11652e+00
9
# CELL(abcABC): 1000.00000  1000.00000  1000.00000    90.00000    90.00000    90.00000  Step:          19  Bead:       0 positions{angstrom}  cell{angstrom}
       O -1.70242e+00  7.42388e-01 -6.95875e-01
       H -9.56206e-01  6.70378e-01 -1.01385e-01
       H -1.92340e+00  1.67359e+00 -7.46780e-01
       O  1.55524e+00  1.10186e+00  3.28963e-02
       H  2.49740e+00  1.01439e+00 -1.06476e-01
       H  1.39657e+00  1.94300e+00  4.75785e-01
       O -6.57116e-02  2.76369e+00  2.07976e+00
       H  3.21519e-01  2.83061e+00  2.95370e+00
       H -8.52873e-01  3.31110e+00  2.11474e+00
9
# CELL(abcABC): 1000.00000  1000.00000  1000.00000    90.00000    90.00000    90.00000  Step:          20  Bead:       0 positions{angstrom}  cell{angstrom}
       O -1.71135e+00  7.36537e-01 -7.02670e-01
       H -9.51811e-01  6.62439e-01 -1.11522e-01
       H -1.92134e+00  1.67075e+00 -7.47664e-01
       O  1.54542e+00  1.10454e+00  3.66993e-02
       H  2.49076e+00  1.01665e+00 -1.08028e-01
       H  1.39208e+00  1.94203e+00  4.79352e-01
       O -3.41781e-02  2.79012e+00  2.07456e+00
       H  3.12216e-01  2.82799e+00  2.97406e+00
       H -8.51698e-01  3.29994e+00  2.11158e+00
9
# CELL(abcABC): 1000.00000  1000.00000  1000.00000    90.00000    90.00000    90.00000  Step:          21  Bead:       0 positions{angstrom}  cell{angstrom}
       O -1.71692e+00  7.35810e-01 -6.92387e-01
       H -9.42082e-01  6.73803e-01 -1.12559e-01
       H -1.91530e+00  1.67196e+00 -7.43735e-01
       O  1.54199e+00  1.10290e+00  3.57437e-02
       H  2.49077e+00  1.02281e+00 -1.04646e-01
       H  1.39432e+00  1.93610e+00  4.82293e-01
       O -4.40336e-02  2.78486e+00  2.07044e+00
       H  3.13991e-01  2.82142e+00  2.96044e+00
       H -8.52630e-01  3.30134e+00  2.11078e+00
9
# CELL(abcABC): 1000.00000  1000.00000  1000.00000    90.00000    90.00000    90.00000  Step:          22  Bead:       0 positions{angstrom}  cell{angstrom}
       O -1.73527e+00  7.25773e-01 -6.67906e-01
       H -9.19379e-01  6.88138e-01 -1.41636e-01
       H -1.89729e+00  1.66915e+00 -7.36349e-01
       O  1.52368e+00  1.09864e+00  3.66671e-02
       H  2.47449e+00  1.04121e+00 -9.89086e-02
       H  1.38884e+00  1.92527e+00  4.99857e-01
       O -1.43820e-02  2.81786e+00  2.04965e+00
       H  3.03770e-01  2.79921e+00  2.96236e+00
       H -8.54346e-01  3.28575e+00  2.10263e+00
9
# CELL(abcABC): 1000.00000  1000.00000  1000.00000    90.00000    90.00000    90.00000  Step:          23  Bead:       0 positions{angstrom}  cell{angstrom}
       O -1.74510e+00  7.31021e-01 -6.25637e-01
       H -8.91825e-01  7.05969e-01 -1.67584e-01
       H -1.88148e+00  1.66529e+00 -7.30389e-01
       O  1.51224e+00  1.09895e+00  3.75972e-02
       H  2.46333e+00  1.05608e+00 -9.40035e-02
       H  1.37836e+00  1.91062e+00  5.20628e-01
       O -6.71440e-03  2.83148e+00  2.03048e+00
       H  3.01163e-01  2.77320e+00  2.94103e+00
       H -8.59861e-01  3.27840e+00  2.09424e+00
9
# CELL(abcABC): 1000.00000  1000.00000  1000.00000    90.00000    90.00000    90.00000  Step:          24  Bead:       0 positions{angstrom}  cell{angstrom}
       O -1.75522e+00  7.30944e-01 -5.52355e-01
       H -8.44581e-01  7.26951e-01 -2.13133e-01
       H -1.86161e+00  1.67205e+00 -7.25838e-01
       O  1.49421e+00  1.09889e+00  3.80601e-02
       H  2.44326e+00  1.07755e+00 -8.88097e-02
       H  1.35364e+00  1.89140e+00  5.61733e-01
       O  7.48328e-03  2.86127e+00  1.99751e+00
       H  2.95721e-01  2.73035e+00  2.91026e+00
       H -8.62801e-01  3.26159e+00  2.07894e+00
9
# CELL(abcABC): 1000.00000  1000.00000  1000.00000    90.00000    90.00000    90.00000  Step:          25  Bead:       0 positions{angstrom}  cell{angstrom}
       O -1.74335e+00  7.45392e-01 -4.94526e-01
       H -8.16665e-01  7.21025e-01 -2.53661e-01
       H -1.85890e+00  1.67359e+00 -7.30856e-01
       O  1.48141e+00  1.10729e+00  4.22989e-02
       H  2.42790e+00  1.08468e+00 -9.23984e-02
       H  1.32102e+00  1.88034e+00  5.98842e-01
       O  3.07199e-02  2.89292e+00  1.97929e+00
       H  2.88447e-01  2.70174e+00  2.89240e+00
       H -8.60466e-01  3.24403e+00  2.06497e+00
9
# CELL(abcABC): 1000.00000  1000.00000  1000.00000    90.00000    90.00000    90.00000  Step:          26  Bead:       0 positions{angstrom}  cell{angstrom}
       O -1.74179e+00  7.56537e-01 -4.50534e-01
       H -7.88614e-01  7.23629e-01 -2.80438e-01
       H -1.85381e+00  1.67406e+00 -7.31439e-01
       O  1.47139e+00  1.11193e+00  4.48995e-02
       H  2.41701e+00  1.09315e+00 -9.25236e-02
       H  1.30067e+00  1.86937e+00  6.24291e-01
       O  4.06364e-02  2.90937e+00  1.96556e+00
       H  2.85383e-01  2.67916e+00  2.87215e+00
       H -8.60768e-01  3.23380e+00  2.05440e+00
9
# CELL(abcABC): 1000.00000  1000.00000  1000.00000    90.00000    90.00000    90.00000  Step:          27  Bead:       0 positions{angstrom}  cell{angstrom}
       O -1.71473e+00  7.94708e-01 -3.71035e-01
       H -7.45936e-01  7.13545e-01 -3.22005e-01
       H -1.85923e+00  1.67394e+00 -7.37542e-01
       O  1.45682e+00  1.12725e+00  5.30480e-02
       H  2.40059e+00  1.10137e+00 -9.63936e-02
       H  1.25946e+00  1.84967e+00  6.66098e-01
       O  4.16290e-02  2.92349e+00  1.95951e+00
       H  2.85727e-01  2.64821e+00  2.82248e+00
       H -8.54214e-01  3.21882e+00  2.03220e+00
9
# CELL(abcABC): 1000.00000  1000.00000  1000.00000    90.00000    90.00000    90.00000  Step:          28  Bead:       0 positions{angstrom}  cell{angstrom}
       O -1.70731e+00  8.03105e-01 -3.44779e-01
       H -7.31177e-01  7.03100e-01 -3.54250e-01
       H -1.85661e+00  1.66796e+00 -7.39451e-01
       O  1.43500e+00  1.13469e+00  6.04461e-02
       H  2.38506e+00  1.11078e+00 -9.79387e-02
       H  1.23984e+00  1.83935e+00  6.86673e-01
       O  8.28579e-02  2.96672e+00  1.94587e+00
       H  2.74613e-01  2.62775e+00  2.83096e+00
       H -8.52161e-01  3.19755e+00  2.01884e+00
9
# CELL(abcABC): 1000.00000  1000.00000  1000.00000    90.00000    90.00000    90.00000  Step:          29  Bead:       0 positions{angstrom}  cell{angstrom}
       O -1.70903e+00  7.95574e-01 -3.75834e-01
       H -7.49796e-01  7.00911e-01 -3.36716e-01
       H -1.85947e+00  1.66630e+00 -7.39098e-01
       O  1.44088e+00  1.13065e+00  5.81264e-02
       H  2.39018e+00  1.10605e+00 -9.73190e-02
       H  1.25340e+00  1.84723e+00  6.70094e-01
       O  7.97798e-02  2.95900e+00  1.95579e+00
       H  2.75809e-01  2.64243e+00  2.84652e+00
       H -8.51642e-01  3.20287e+00  2.02481e+00
9
# CELL(abcABC): 1000.00000  1000.00000  1000.00000    90.00000    90.00000    90.00000  Step:          30  Bead:       0 positions{angstrom}  cell{angstrom}
       O -1.70587e+00  7.97192e-01 -3.62686e-01
       H -7.45452e-01  7.07222e-01 -3.41295e-01
       H -1.85540e+00  1.66635e+00 -7.38816e-01
       O  1.43881e+00  1.12803e+00  5.57140e-02
       H  2.38397e+00  1.11167e+00 -9.37705e-02
       H  1.25195e+00  1.84423e+00  6.74919e-01
       O  7.45770e-02  2.95795e+00  1.95611e+00
       H  2.78732e-01  2.63649e+00  2.83694e+00
       H -8.51202e-01  3.20186e+00  2.01925e+00
9
# CELL(abcABC): 1000.00000  1000.00000  1000.00000    90.00000    90.00000    90.00000  Step:          31  Bead:       0 positions{angstrom}  cell{angstrom}
       O -1.69457e+00  8.05968e-01 -3.33553e-01
       H -7.34363e-01  7.10605e-01 -3.59693e-01
       H -1.84973e+00  1.66265e+00 -7.39918e-01
       O  1.42478e+00  1.12807e+00  5.60617e-02
       H  2.36916e+00  1.12353e+00 -8.93149e-02
       H  1.24132e+00  1.83534e+00  6.88802e-01
       O  8.33170e-02  2.97260e+00  1.95558e+00
       H  2.79262e-01  2.62080e+00  2.82467e+00
       H -8.49055e-01  3.19143e+00  2.00373e+00
9
# CELL(abcABC): 1000.00000  1000.00000  1000.00000    90.00000    90.00000    90.00000  Step:          32  Bead:       0 positions{angstrom}  cell{angstrom}
       O -1.65515e+00  8.39641e-01 -2.49501e-01
       H -6.98097e-01  7.15040e-01 -4.15807e-01
       H -1.83412e+00  1.64514e+00 -7.44438e-01
       O  1.37407e+00  1.13038e+00  6.13193e-02
       H  2.31878e+00  1.16094e+00 -7.68935e-02
       H  1.20047e+00  1.80817e+00  7.28718e-01
       O  1.19158e-01  3.03140e+00  1.95799e+00
       H  2.79354e-01  2.57107e+00  2.79839e+00
       H -8.34342e-01  3.14924e+00  1.94658e+00
9
# CELL(abcABC): 1000.00000  1000.00000  1000.00000    90.00000    90.00000    90.00000  Step:          33  Bead:       0 positions{angstrom}  cell{angstrom}
       O -1.65486e+00  8.31245e-01 -2.76211e-01
       H -7.09197e-01  7.15459e-01 -3.96952e-01
       H -1.83523e+00  1.64476e+00 -7.46689e-01
       O  1.36925e+00  1.12607e+00  6.14181e-02
       H  2.32073e+00  1.16094e+00 -7.51820e-02
       H  1.20830e+00  1.81387e+00  7.11008e-01
       O  1.23203e-01  3.02470e+00  1.97634e+00
       H  2.81771e-01  2.58488e+00  2.81051e+00
       H -8.33846e-01  3.14907e+00  1.94212e+00
9
# CELL(abcABC): 1000.00000  1000.00000  1000.00000    90.00000    90.00000    90.00000  Step:          34  Bead:       0 positions{angstrom}  cell{angstrom}
       O -1.64676e+00  8.37328e-01 -2.67494e-01
       H -7.04161e-01  7.13851e-01 -4.03249e-01
       H -1.83440e+00  1.64100e+00 -7.48348e-01
       O  1.36299e+00  1.12648e+00  6.26137e-02
       H  2.31028e+00  1.16541e+00 -7.46417e-02
       H  1.19794e+00  1.81215e+00  7.16544e-01
       O  1.31142e-01  3.03737e+00  1.97847e+00
       H  2.80338e-01  2.57837e+00  2.81120e+00
       H -8.27257e-01  3.13904e+00  1.93128e+00
9
# CELL(abcABC): 1000.00000  1000.00000  1000.00000    90.00000    90.00000    90.00000  Step:          35  Bead:       0 positions{angstrom}  cell{angstrom}
       O -1.62105e+00  8.55532e-01 -2.36808e-01
       H -6.84847e-01  7.10136e-01 -4.21701e-01
       H -1.83219e+00  1.63148e+00 -7.55291e-01
       O  1.33945e+00  1.12950e+00  6.89995e-02
       H  2.28123e+00  1.17914e+00 -7.45101e-02
       H  1.16185e+00  1.80581e+00  7.33115e-01
       O  1.56522e-01  3.07203e+00  1.99085e+00
       H  2.75375e-01  2.56048e+00  2.80645e+00
       H -8.06229e-01  3.10689e+00  1.89526e+00
9
# CELL(abcABC): 1000.00000  1000.00000  1000.00000    90.00000    90.00000    90.00000  Step:          36  Bead:       0 positions{angstrom}  cell{angstrom}
       O -1.60467e+00  8.67710e-01 -2.36111e-01
       H -6.68670e-01  7.05420e-01 -4.14434e-01
       H -1.83533e+00  1.62296e+00 -7.65757e-01
       O  1.32451e+00  1.13071e+00  7.65427e-02
       H  2.26170e+00  1.18237e+00 -8.08055e-02
       H  1.12365e+00  1.81327e+00  7.33563e-01
       O  1.67502e-01  3.09102e+00  2.01202e+00
       H  2.71253e-01  2.56141e+00  2.81882e+00
       H -7.69824e-01  3.07613e+00  1.86252e+00
9
# CELL(abcABC): 1000.00000  1000.00000  1000.00000    90.00000    90.00000    90.00000  Step:          37  Bead:       0 positions{angstrom}  cell{angstrom}
       O -1.56190e+00  8.91048e-01 -2.02719e-01
       H -6.40317e-01  7.04509e-01 -4.25015e-01
       H -1.83134e+00  1.60656e+00 -7.83708e-01
       O  1.27877e+00  1.13060e+00  8.80902e-02
       H  2.21385e+00  1.20573e+00 -8.05828e-02
       H  1.06304e+00  1.81134e+00  7.45626e-01
       O  2.08133e-01  3.13618e+00  2.05120e+00
       H  2.67665e-01  2.54637e+00  2.82216e+00
       H -7.27787e-01  3.01868e+00  1.79132e+00
9
# CELL(abcABC): 1000.00000  1000.00000  1000.00000    90.00000    90.00000    90.00000  Step:          38  Bead:       0 positions{angstrom}  cell{angstrom}
       O -1.58627e+00  8.72556e-01 -2.27130e-01
       H -6.56972e-01  7.10021e-01 -4.08395e-01
       H -1.83229e+00  1.61644e+00 -7.79439e-01
       O  1.30013e+00  1.12811e+00  8.30048e-02
       H  2.23912e+00  1.19368e+00 -8.04449e-02
       H  1.09613e+00  1.81708e+00  7.29752e-01
       O  1.85969e-01  3.10074e+00  2.04051e+00
       H  2.72389e-01  2.56425e+00  2.82498e+00
       H -7.48092e-01  3.04812e+00  1.82352e+00
9
# CELL(abcABC): 1000.00000  1000.00000  1000.00000    90.00000    90.00000    90.00000  Step:          39  Bead:       0 positions{angstrom}  cell{angstrom}
       O -1.58080e+00  8.78079e-01 -2.21096e-01
       H -6.49981e-01  7.11686e-01 -4.08326e-01
       H -1.83019e+00  1.61121e+00 -7.84283e-01
       O  1.28922e+00  1.12909e+00  8.75415e-02
       H  2.23126e+00  1.19755e+00 -8.16184e-02
       H  1.08298e+00  1.81810e+00  7.29436e-01
       O  1.92334e-01  3.10694e+00  2.04654e+00
       H  2.71514e-01  2.56261e+00  2.82957e+00
       H -7.36224e-01  3.03573e+00  1.80861e+00
9
# CELL(abcABC): 1000.00000  1000.00000  1000.00000    90.00000    90.00000    90.00000  Step:          40  Bead:       0 positions{angstrom}  cell{angstrom}
       O -1.56592e+00  8.89127e-01 -2.07221e-01
       H -6.35286e-01  7.17547e-01 -4.05309e-01
       H -1.82487e+00  1.59932e+00 -7.98234e-01
       O  1.26656e+00  1.12882e+00  9.59034e-02
       H  2.20767e+00  1.20696e+00 -8.35075e-02
       H  1.05099e+00  1.82415e+00  7.28710e-01
       O  2.07876e-01  3.11878e+00  2.06387e+00
       H  2.69542e-01  2.56133e+00  2.84110e+00
       H -7.06447e-01  3.00497e+00  1.77105e+00
9
# CELL(abcABC): 1000.00000  1000.00000  1000.00000    90.00000    90.00000    90.00000  Step:          41  Bead:       0 positions{angstrom}  cell{angstrom}
       O -1.56255e+00  8.94229e-01 -2.02038e-01
       H -6.31903e-01  7.31222e-01 -3.94755e-01
       H -1.81580e+00  1.58741e+00 -8.10030e-01
       O  1.25457e+00  1.12593e+00  1.00195e-01
       H  2.19121e+00  1.21296e+00 -8.25375e-02
       H  1.03945e+00  1.83417e+00  7.21188e-01
       O  2.13793e-01  3.11384e+00  2.06524e+00
       H  2.69262e-01  2.56369e+00  2.85925e+00
       H -6.87906e-01  2.98756e+00  1.74985e+00
9
# CELL(abcABC): 1000.00000  1000.00000  1000.00000    90.00000    90.00000    90.00000  Step:          42  Bead:       0 positions{angstrom}  cell{angstrom}
       O -1.56318e+00  8.97434e-01 -1.98642e-01
       H -6.27406e-01  7.43274e-01 -3.82392e-01
       H -1.80923e+00  1.57864e+00 -8.22300e-01
       O  1.24556e+00  1.12391e+00  1.04236e-01
       H  2.17854e+00  1.21694e+00 -8.23133e-02
       H  1.03182e+00  1.84410e+00  7.12954e-01
       O  2.18747e-01  3.10242e+00  2.06942e+00
       H  2.67794e-01  2.57144e+00  2.87125e+00
       H -6.72523e-01  2.97284e+00  1.73415e+00
9
# CELL(abcABC): 1000.00000  1000.00000  1000.00000    90.00000    90.00000    90.00000  Step:          43  Bead:       0 positions{angstrom}  cell{angstrom}
       O -1.56019e+00  9.02261e-01 -1.93555e-01
       H -6.26013e-01  7.57702e-01 -3.65043e-01
       H -1.80406e+00  1.56928e+00 -8.39018e-01
       O  1.23489e+00  1.12415e+00  1.10215e-01
       H  2.16698e+00  1.22038e+00 -8.35527e-02
       H  1.02645e+00  1.85544e+00  7.04924e-01
       O  2.27007e-01  3.08621e+00  2.06750e+00
       H  2.62285e-01  2.58088e+00  2.88328e+00
       H -6.57230e-01  2.95470e+00  1.72161e+00
9
# CELL(abcABC): 1000.00000  1000.00000  1000.00000    90.00000    90.00000    90.00000  Step:          44  Bead:       0 positions{angstrom}  cell{angstrom}
       O -1.56329e+00  9.11751e-01 -1.91217e-01
       H -6.23482e-01  7.72649e-01 -3.42737e-01
       H -1.80060e+00  1.55793e+00 -8.55890e-01
       O  1.22946e+00  1.12572e+00  1.14955e-01
       H  2.15748e+00  1.22127e+00 -8.58795e-02
       H  1.02800e+00  1.86922e+00  6.98784e-01
       O  2.36906e-01  3.06121e+00  2.05848e+00
       H  2.52979e-01  2.59399e+00  2.89246e+00
       H -6.47338e-01  2.93726e+00  1.71741e+00
9
# CELL(abcABC): 1000.00000  1000.00000  1000.00000    90.00000    90.00000    90.00000  Step:          45  Bead:       0 positions{angstrom}  cell{angstrom}
       O -1.56459e+00  9.32044e-01 -1.81590e-01
       H -6.17308e-01  7.98002e-01 -3.01512e-01
       H -1.79792e+00  1.53845e+00 -8.90934e-01
       O  1.21792e+00  1.13210e+00  1.24453e-01
       H  2.14094e+00  1.22209e+00 -9.28916e-02
       H  1.02918e+00  1.89255e+00  6.93404e-01
       O  2.59638e-01  3.01809e+00  2.03841e+00
       H  2.35239e-01  2.61564e+00  2.91024e+00
       H -6.32986e-01  2.90204e+00  1.70678e+00
9
# CELL(abcABC): 1000.00000  1000.00000  1000.00000    90.00000    90.00000    90.00000  Step:          46  Bead:       0 positions{angstrom}  cell{angstrom}
       O -1.56585e+00  9.52332e-01 -1.80334e-01
       H -6.18930e-01  8.06766e-01 -2.79662e-01
       H -1.80138e+00  1.52637e+00 -9.03273e-01
       O  1.21639e+00  1.14443e+00  1.29211e-01
       H  2.14660e+00  1.21597e+00 -1.03181e-01
       H  1.03924e+00  1.89756e+00  7.01953e-01
       O  2.66232e-01  2.99001e+00  2.02209e+00
       H  2.26102e-01  2.62825e+00  2.90708e+00
       H -6.38286e-01  2.88931e+00  1.71249e+00
9
# CELL(abcABC): 1000.00000  1000.00000  1000.00000    90.00000    90.00000    90.00000  Step:          47  Bead:       0 positions{angstrom}  cell{angstrom}
       O -1.56598e+00  9.52589e-01 -1.78057e-01
       H -6.18808e-01  8.02977e-01 -2.83144e-01
       H -1.80416e+00  1.52930e+00 -9.02332e-01
       O  1.22226e+00  1.14518e+00  1.25629e-01
       H  2.14822e+00  1.21370e+00 -1.04274e-01
       H  1.04090e+00  1.89496e+00  7.08651e-01
       O  2.62331e-01  2.99338e+00  2.02201e+00
       H  2.28742e-01  2.62616e+00  2.90375e+00
       H -6.43384e-01  2.89275e+00  1.71412e+00
9
# CELL(abcABC): 1000.00000  1000.00000  1000.00000    90.00000    90.00000    90.00000  Step:          48  Bead:       0 positions{angstrom}  cell{angstrom}
       O -1.56602e+00  9.62428e-01 -1.70571e-01
       H -6.17717e-01  8.03435e-01 -2.78937e-01
       H -1.80749e+00  1.52656e+00 -9.09265e-01
       O  1.22696e+00  1.15127e+00  1.22634e-01
       H  2.14967e+00  1.20913e+00 -1.10634e-01
       H  1.04435e+00  1.89306e+00  7.22184e-01
       O  2.56082e-01  2.98901e+00  2.01672e+00
       H  2.32319e-01  2.62720e+00  2.90397e+00
       H -6.48043e-01  2.88891e+00  1.71026e+00
9
# CELL(abcABC): 1000.00000  1000.00000  1000.00000    90.00000    90.00000    90.00000  Step:          49  Bead:       0 positions{angstrom}  cell{angstrom}
       O -1.56473e+00  9.79476e-01 -1.60278e-01
       H -6.19555e-01  8.04005e-01 -2.74642e-01
       H -1.81169e+00  1.52081e+00 -9.16272e-01
       O  1.23297e+00  1.16188e+00  1.18252e-01
       H  2.15458e+00  1.20240e+00 -1.20523e-01
       H  1.05297e+00  1.88624e+00  7.43748e-01
       O  2.46303e-01  2.98382e+00  2.01109e+00
       H  2.38979e-01  2.62834e+00  2.90046e+00
       H -6.59721e-01  2.88404e+00  1.70453e+00
9
# CELL(abcABC): 1000.00000  1000.00000  1000.00000    90.00000    90.00000    90.00000  Step:          50  Bead:       0 positions{angstrom}  cell{angstrom}
       O -1.56521e+00  1.02171e+00 -1.38106e-01
       H -6.24500e-01  8.22620e-01 -2.48853e-01
       H -1.81241e+00  1.49671e+00 -9.41272e-01
       O  1.23447e+00  1.18065e+00  1.14031e-01
       H  2.15220e+00  1.19601e+00 -1.35711e-01
       H  1.08062e+00  1.88027e+00  7.72851e-01