9
# CELL(abcABC): 1000.00000  1000.00000  1000.00000    90.00000    90.00000    90.00000  Step:        1600  Bead:       0 positions{angstrom}  cell{angstrom}
       O -1.53517e+00  1.21522e+00 -5.30071e-02
       H -6.11280e-01  9.44915e-01 -1.42872e-01
       H -1.81778e+00  1.37592e+00 -9.55829e-01
       O  1.22681e+00  1.17632e+00  1.34321e-01
       H  2.12964e+00  1.25927e+00 -1.66272e-01
       H  1.10561e+00  1.83936e+00  8.35441e-01
       O  2.17264e-01  2.93714e+00  1.94755e+00
       H  1.95487e-01  2.58133e+00  2.83974e+00
       H -6.40468e-01  2.72152e+00  1.56729e+00
