LAMMPS data file via write_data, version 29 Sep 2021, timestep = 1000

1280 atoms
2 atom types
1024 bonds
1 bond types
1536 angles
1 angle types

-12.019397943369487 12.019397943369487 xlo xhi
-12.019397943369487 12.019397943369487 ylo yhi
-12.019397943369487 12.019397943369487 zlo zhi

Masses

1 12
2 1.0078250321

Atoms # full

127 26 2 0 -10.624981912537917 -9.486529337239045 -7.049195843395811 0 2 2
129 26 2 0 -9.499177911092513 -10.248667158100627 -8.187590035492422 0 2 2
126 26 1 0 -9.775679025706722 -10.162709304368935 -7.141118176231673 0 2 2
566 114 1 0 -6.029495964594268 -11.143498799137795 -8.517828945079216 -1 2 -1
337 68 2 0 -7.041305018193383 -6.195073240013223 -8.539703830925392 1 0 3
1049 210 2 0 -9.008834819517434 -7.4546015616438615 -11.124519113438478 1 1 -1
622 125 2 0 -10.371937649469666 -6.801003675251363 -7.398862343111958 1 0 -1
1046 210 1 0 -8.732931625542623 -8.136026579020777 -10.318450250716538 1 1 -1
339 68 2 0 -6.158363595770321 -6.0370412190092635 -10.05066785613618 1 0 3
1048 210 2 0 -9.40037685146648 -7.9061592272706305 -9.487499185228941 1 1 -1
1248 250 2 0 -11.158636747926424 -6.483104222387949 -10.99133367213669 1 -3 -1
130 26 2 0 -8.916151938066267 -9.71916392179026 -6.605367394369827 0 2 2
1050 210 2 0 -8.866017731178296 -9.173411095412906 -10.671582600789126 1 1 -1
1047 210 2 0 -7.697614593992554 -7.964808460716666 -10.04828354728702 1 1 -1
498 100 2 0 -11.69608143665798 -9.633019155873697 -10.039926119783557 0 2 0
570 114 2 0 -6.145557365269142 -11.744104779765236 -9.405992798578636 -1 2 -1
567 114 2 0 -6.180342899154145 -11.797062417391581 -7.656745070431867 -1 2 -1
128 26 2 0 -9.989446002490496 -11.137500157307036 -6.771995404722163 0 2 2
568 114 2 0 -6.753141196328787 -10.339083068628385 -8.506367168102173 -1 2 -1
1034 207 2 0 -9.567424426865497 -11.858953080772007 -10.602151535970007 2 2 0
338 68 2 0 -5.309228958817436 -6.71695020085047 -8.637251401628676 1 0 3
930 186 2 0 -5.9595078644877 -9.177496268451504 -6.240683271367032 -1 0 -4
1276 256 1 0 -2.8764178035685912 -8.682065729561689 -10.853892466513539 -2 1 1
1280 256 2 0 -2.2643316719743396 -8.942449035622626 -10.017854371290872 -2 1 1
1277 256 2 0 -3.883312314960259 -9.133381931867747 -10.76056009147843 -2 1 1
1018 204 2 0 -0.945361481038713 -11.393257340023371 -6.772541391156572 -2 1 0
1278 256 2 0 -2.4317588445284866 -8.997546391706404 -11.811184800402204 -2 1 1
823 165 2 0 -0.053480515366318926 -10.875769493156081 -9.584949592137729 -2 -1 0
822 165 2 0 -0.10131361052994414 -9.082866813570686 -9.42303098378241 -2 -1 0
63 13 2 0 -1.3504590460709736 -6.184676181240166 -8.820311608200596 3 1 2
487 98 2 0 -2.253194426373323 -8.385109919704695 -7.627157501425472 -1 -1 1
569 114 2 0 -5.024620002347128 -10.731387757864963 -8.51754226753771 -1 2 -1
486 98 1 0 -2.4679222085612302 -7.879740881928012 -6.701830765892211 -1 -1 1
488 98 2 0 -3.2120610278694155 -7.0988067345034676 -6.838319835191784 -1 -1 1
490 98 2 0 -1.5361944029909669 -7.447955117956078 -6.334390722679614 -1 -1 1
1016 204 1 0 -0.20605118954718016 -10.856137829899202 -6.16677689805182 -2 1 0
1279 256 2 0 -2.9493256903268055 -7.6091340404195265 -10.849254490127061 -2 1 1
1020 204 2 0 0.08245592245043731 -9.901176860511386 -6.629643008659551 -2 1 0
360 72 2 0 4.1289791514211025 -8.526791487090426 -11.532043363848999 1 -3 -1
821 165 1 0 0.5369385517902447 -9.95255135440939 -9.59960304322164 -2 -1 0
824 165 2 0 1.0274372340267899 -9.826274135951275 -10.560036935917088 -2 -1 0
825 165 2 0 1.2556648078113248 -9.954578521595161 -8.771923484812561 -2 -1 0
232 47 2 0 2.8688534315022682 -11.388018395244151 -11.635333501313148 -1 2 -1
295 59 2 0 5.142381222334212 -10.266867594690236 -8.092707006564837 -2 -1 -1
558 112 2 0 1.7199957257477898 -7.6030860710580415 -8.40974320286914 0 -1 -2
556 112 1 0 2.3425962575158046 -6.93337008456297 -8.981875559976416 0 -1 -2
291 59 1 0 4.144600526063627 -9.920520276280982 -8.308847450978886 -2 -1 -1
294 59 2 0 3.876883784277723 -9.245664673661937 -7.4859250592296736 -2 -1 -1
59 12 2 0 1.0178196051010726 -6.131047929101847 -6.2058167604946295 0 0 -1
292 59 2 0 3.4831834395790437 -10.759276828275443 -8.398044587652759 -2 -1 -1
560 112 2 0 2.5689654199413923 -7.326404304618828 -9.95786347571732 0 -1 -2
293 59 2 0 4.14941900730539 -9.404166376097944 -9.270074825490008 -2 -1 -1
557 112 2 0 3.254234922662132 -6.769354340104486 -8.442120452156567 0 -1 -2
38 8 2 0 3.9197003382235724 -11.734342032519422 -6.420739104940739 0 -1 0
1017 204 2 0 0.6654039430287462 -11.514678908219318 -6.017347029542947 -2 1 0
57 12 2 0 2.223629215592794 -7.468549313195498 -6.115599416552817 0 0 -1
233 47 2 0 4.307899346775432 -11.96089748623847 -10.811169775921586 -1 2 -1
497 100 2 0 11.32772353159886 -10.072838379754998 -11.362183481737013 -1 2 0
499 100 2 0 10.838260887561017 -8.759671251758476 -10.324502420764633 -1 2 0
998 200 2 0 8.179009763486203 -8.42487094317001 -11.621170082262932 -2 -1 1
500 100 2 0 10.806676179348255 -10.466041203841693 -9.72396621881318 -1 2 0
924 185 2 0 7.656362315482454 -6.148401458070024 -7.320601943058897 -1 2 2
925 185 2 0 7.960814270375408 -6.134061339489019 -9.104846483445254 -1 2 2
923 185 2 0 7.413523483008849 -7.625965504941586 -8.308389096244486 -1 2 2
921 185 1 0 8.004003944363358 -6.709962013326632 -8.191956948316086 -1 2 2
633 127 2 0 7.136601082432406 -9.318420070396558 -9.483369271852471 1 0 1
496 100 1 0 11.31713532138727 -9.741720602934434 -10.343196494906072 -1 2 0
632 127 2 0 6.9259040979939925 -11.041329696364702 -9.539237645354204 1 0 1
635 127 2 0 7.83578385014901 -10.27161966873574 -10.817319631107509 1 0 1
768 154 2 0 8.28349903982129 -11.215263091895851 -6.3669124569831075 0 1 0
922 185 2 0 9.044494440169515 -7.016461210868169 -8.029677093460219 -1 2 2
631 127 1 0 7.62103227192566 -10.2424560916702 -9.74786654085138 1 0 1
997 200 2 0 9.271821273525763 -7.080911482907969 -11.168938253023317 -2 -1 1
634 127 2 0 8.543181354056603 -10.34224912902753 -9.21366332950069 1 0 1
999 200 2 0 7.505552645158492 -6.793028996375271 -11.307733218780875 -2 -1 1
290 58 2 0 10.614246464184635 -8.42111094738593 -6.0580906564427295 0 -1 -1
996 200 1 0 8.36189642689213 -7.3372574872335266 -11.698698747738362 -2 -1 1
623 125 2 0 -9.239339495299797 -5.433677606229275 -7.4072862350079705 1 0 -1
621 125 1 0 -10.084306788464781 -5.8792762934944465 -6.876527110029905 1 0 -1
336 68 1 0 -6.067805357746208 -5.967670342185213 -8.977181911257794 1 0 3
624 125 2 0 -10.949994178829026 -5.200763490837529 -6.900592123344199 1 0 -1
1249 250 2 0 -10.430852448966132 -4.903229129545444 -11.448467262812484 1 -3 -1
1206 242 1 0 -8.783702506400997 -2.061496479078613 -7.7042977577710445 0 2 1
1207 242 2 0 -9.391409603618001 -1.7588002045860094 -6.857706472608524 0 2 1
1209 242 2 0 -8.405270674782175 -3.048007049041752 -7.452023857935845 0 2 1
1208 242 2 0 -7.982640450025237 -1.3419726434784387 -7.894078635800347 0 2 1
861 173 1 0 -11.320733567948604 -1.8380089991167772 -10.680163708199652 -1 1 1
1210 242 2 0 -9.417151816990593 -2.1384349208900417 -8.575995617400523 0 2 1
863 173 2 0 -10.886287994323709 -1.2115231591972666 -11.47369759388589 -1 1 1
864 173 2 0 -10.741524022664565 -2.765094081563822 -10.550234579763952 -1 1 1
1246 250 1 0 -11.063545371758 -5.442478285899072 -10.740195167532757 1 -3 -1
175 35 2 0 -6.23934172164627 -2.881528046670816 -8.682398160219504 3 -2 1
1250 250 2 0 -10.670319545014479 -5.324244541786816 -9.705766734094201 1 -3 -1
862 173 2 0 -11.339371828402815 -1.3334774377464829 -9.708321952950394 -1 1 1
340 68 2 0 -5.730770310684742 -4.984351431001567 -8.695075411622854 1 0 3
1155 231 2 0 -3.6411239032833222 -4.321514175263202 -7.329953617413601 1 2 2
1151 231 1 0 -3.1129597464672933 -3.8833524806968622 -6.468447486340216 1 2 2
64 13 2 0 -0.3781604953471174 -5.60971482106696 -10.195844846609159 3 1 2
1154 231 2 0 -2.1553146509010244 -4.409391424354346 -6.319147466620499 1 2 2
62 13 2 0 -1.4910001735041405 -4.502034476692593 -9.35268639826454 3 1 2
61 13 1 0 -0.8074936723093984 -5.353447819088066 -9.255580445400502 3 1 2
445 89 2 0 -0.4639871412607093 -1.0932580274416974 -9.425023981128358 2 3 0
172 35 2 0 -5.522657449887233 -1.52919384904445 -9.624199613997334 3 -2 1
1153 231 2 0 -2.9317909830155884 -2.8266910451487846 -6.699422539455695 1 2 2
854 171 2 0 -2.3799184852728157 -3.6045639170785115 -10.932576394399229 0 1 -1
441 89 1 0 -0.8620858393538011 -1.6447960348895059 -8.6079534727847 2 3 0
444 89 2 0 -0.41693234419459735 -1.2524109031623354 -7.691182253983239 2 3 0
851 171 1 0 -2.8101478894150613 -3.9851755837528025 -11.853721954414258 0 1 -1
442 89 2 0 -0.6464448813295771 -2.6953070312568066 -8.760884757070551 2 3 0
173 35 2 0 -4.507401092345488 -2.400100486447167 -8.471074539048669 3 -2 1
171 35 1 0 -5.522644995150478 -2.0519401525135343 -8.669184998845774 3 -2 1
174 35 2 0 -5.826252421646303 -1.3753169228475244 -7.889935527598412 3 -2 1
443 89 2 0 -1.9265692495672813 -1.5222746838365655 -8.513680562350068 2 3 0
855 171 2 0 -3.207321953090636 -4.989034750257084 -11.697745213233938 0 1 -1
65 13 2 0 -0.018436989783124247 -5.057050198298592 -8.52000237269074 3 1 2
365 73 2 0 -0.23188591997401886 -0.17539823245797947 -11.801298660355293 1 2 1
363 73 2 0 1.107073223091957 -1.3379556450005552 -11.476294082218212 1 2 1
832 167 2 0 2.0368044200199833 -5.599868750893147 -11.56259255961231 -2 -1 0
559 112 2 0 1.8492636658919697 -5.965485813060647 -9.106609268917419 0 -1 -2
410 82 2 0 4.480042367015514 -3.715802600427377 -6.5625618724207175 0 2 3
760 152 2 0 4.601720334814729 -3.8728158135107016 -11.842834746102534 -2 -1 -1
407 82 2 0 3.6702766810655714 -4.730790985034692 -7.799854895995066 0 2 3
406 82 1 0 4.496278687138432 -4.689373250521958 -7.055749504787119 0 2 3
1098 220 2 0 3.2855417076715074 -1.1377085150335393 -8.594976262675235 3 1 1
1097 220 2 0 1.8877417790122148 -2.1890695241590024 -9.129347608519822 3 1 1
761 153 1 0 5.4476913520474675 -0.01803350403446302 -11.371073333130017 1 1 1
1099 220 2 0 3.5301658347024354 -2.830491605828046 -9.008720873779446 3 1 1
1096 220 1 0 2.9426452213522207 -1.944409171786921 -9.23824737141971 3 1 1
1100 220 2 0 3.0371834553233477 -1.6034250876400655 -10.273353735329252 3 1 1
759 152 2 0 4.862155429950139 -5.562506013965494 -11.838055005913033 -2 -1 -1
756 152 1 0 4.837861747190374 -4.699394269362563 -11.199613280611295 -2 -1 -1
757 152 2 0 4.046086909239239 -4.782417878876127 -10.459804210767311 -2 -1 -1
408 82 2 0 4.315606212231874 -5.496362865366849 -6.328082081847813 0 2 3
409 82 2 0 5.452586720996333 -4.839885414618353 -7.530466519513735 0 2 3
694 139 2 0 5.930356732170772 -1.7255874294968567 -8.270193004780822 1 2 -2
758 152 2 0 5.816199388836072 -4.572921911456624 -10.701553081083413 -2 -1 -1
762 153 2 0 4.860181971301536 -0.944633966434937 -11.457053427112964 1 1 1
833 167 2 0 0.36554592060421776 -5.098081140869397 -11.999723502464501 -2 -1 0
1247 250 2 0 11.964829754746201 -5.034551435477731 -10.75162835380743 0 -3 -1
143 29 2 0 9.9915231279142 -2.003670528018832 -7.044041369358714 1 0 2
695 139 2 0 7.577297661619479 -1.1148501451871038 -7.986627513672329 1 2 -2
141 29 1 0 10.569340036034816 -2.9280810552640233 -7.246404966490686 1 0 2
144 29 2 0 10.24928489574718 -3.355793175446001 -8.1762314948237 1 0 2
145 29 2 0 10.298489058168055 -3.6148163108602915 -6.4811321194739 1 0 2
142 29 2 0 11.632449657578086 -2.747329109887808 -7.236184218624693 1 0 2
693 139 2 0 7.041362817714042 -1.638576791334394 -9.61288449032487 1 2 -2
691 139 1 0 6.97527756956195 -1.8558315782531665 -8.550442161835448 1 2 -2
692 139 2 0 7.3078576390431635 -2.869551667489846 -8.368013357276611 1 2 -2
869 174 2 0 9.277938356592227 -3.939438669448972 -11.950261337177052 0 0 2
787 158 2 0 9.880682243075015 -0.07402867541538072 -10.314889315736869 -3 0 3
865 173 2 0 11.695191047235141 -2.0614025145255166 -10.967563934863136 -2 1 1
763 153 2 0 6.514658272198751 -0.2066785358064802 -11.379305857067944 1 1 1
790 158 2 0 10.124572691585708 -0.6228984857174815 -8.651486058072969 -3 0 3
926 186 1 0 -6.290727262099546 -8.328315440723925 -5.574958739297785 -1 0 -4
1119 224 2 0 -7.863881447332968 -11.77168105084165 -0.7179901880056683 4 0 -1
625 125 2 0 -9.860824661040892 -6.111069175985633 -5.82442194261793 1 0 -1
335 67 2 0 -10.656444222116692 -7.606629749104187 -4.002116520895312 0 0 -2
411 83 1 0 -8.186683702407773 -11.635928140933393 -3.8945733239067266 1 1 0
413 83 2 0 -8.001618262069568 -10.97670593027883 -4.788254033838927 1 1 0
929 186 2 0 -6.226893536340325 -8.686899904007745 -4.556114456655135 -1 0 -4
654 131 2 0 -6.883337522129731 -8.49447399404956 -2.0256910717987378 2 0 1
927 186 2 0 -7.319669120979269 -8.015337245034184 -5.815664884702605 -1 0 -4
333 67 2 0 -9.268665562686316 -6.61205482674152 -3.5699767475081163 0 0 -2
655 131 2 0 -7.026420373189477 -6.7516639769077385 -1.6175375769615314 2 0 1
334 67 2 0 -9.095805215671383 -8.284278101786494 -4.2168645956900495 0 0 -2
332 67 2 0 -9.71170137300537 -7.961996064188796 -2.595026371690487 0 0 -2
331 67 1 0 -9.674253033130732 -7.617175922034643 -3.590790897679627 0 0 -2
651 131 1 0 -6.798255450520921 -7.7631437199758135 -1.2066762119385768 2 0 1
1120 224 2 0 -6.402817217891646 -10.787282208381628 -0.5618634916404499 4 0 -1
1132 227 2 0 -11.645072789379961 -10.408694379155781 -4.000178559647248 2 2 0
289 58 2 0 -12.015623433719295 -7.315604127114254 -5.8178991844696 1 -1 -1
493 99 2 0 -11.567642933916806 -6.500994012176573 -1.2096671028982922 -1 1 0
491 99 1 0 -11.019971994789424 -6.0497743531995765 -0.39701727007022924 -1 1 0
652 131 2 0 -7.55044352268603 -8.025594957661998 -0.43310374687156816 2 0 1
553 111 2 0 -10.48200055331775 -9.959042217633513 -0.5881821723711091 1 0 0
415 83 2 0 -8.053643744084656 -11.036913262199008 -2.986764798946691 1 1 0
1116 224 1 0 -6.959087347705706 -11.602419271010106 -0.12350841604442309 4 0 -1
928 186 2 0 -5.67775326465316 -7.464779931830905 -5.751942707342533 -1 0 -4
489 98 2 0 -2.8542456096135638 -8.597965294388818 -6.000504997686905 -1 -1 1
91 19 1 0 -4.265163054970894 -11.291743626243687 -4.95424797802584 -1 1 1
95 19 2 0 -5.352048557519219 -11.37560084050537 -5.056602455437739 -1 1 1
458 92 2 0 -0.6832372239207576 -11.765612826417724 -0.983509473599133 -1 0 -2
653 131 2 0 -5.838814185268147 -7.796115536358131 -0.7424400086658629 2 0 1
93 19 2 0 -4.047076187964646 -10.295863698857387 -4.507345735874438 -1 1 1
179 36 2 0 -4.016668203450562 -10.313757888027318 -1.505382183049642 0 -2 0
457 92 2 0 -0.4518899690864746 -10.141396918108725 -0.32468299187620353 -1 0 -2
180 36 2 0 -2.930657200132293 -9.645290224351704 -0.30782654847130075 0 -2 0
176 36 1 0 -3.1083702109806772 -9.73607928881832 -1.3724300340060207 0 -2 0
178 36 2 0 -3.257178007186271 -8.752144201902642 -1.8298405476215507 0 -2 0
177 36 2 0 -2.263602547881545 -10.213636787491149 -1.8362432967874884 0 -2 0
94 19 2 0 -3.7970489223291874 -11.334784872952797 -5.955614426039006 -1 1 1
1019 204 2 0 -0.7238222340371312 -10.635924461444873 -5.223511383584775 -2 1 0
686 138 1 0 -0.9206291686884729 -6.257043620021876 -2.2633258517799604 1 1 0
226 46 1 0 -4.290177331118398 -6.136979823473641 -3.364602887971502 -1 -3 2
229 46 2 0 -4.015741239845465 -6.927312301078658 -4.07577770908957 -1 -3 2
227 46 2 0 -5.1978759725732155 -6.449809323678898 -2.861310431023119 -1 -3 2
690 138 2 0 -1.4019448603158118 -7.190670664324688 -1.946704925725296 1 1 0
456 92 1 0 -0.5567193681538285 -11.207987885696419 -0.07468942638566212 -1 0 -2
60 12 2 0 0.6377261140673429 -7.728847551053609 -5.522112604282123 0 0 -1
840 168 2 0 4.144121339880957 -6.1350919333193445 -0.8257716776106676 -1 -1 -1
37 8 2 0 4.930203163426999 -10.78643154255139 -5.336856583359418 0 -1 0
1 1 1 0 3.537946777447033 -10.62016762755914 -0.3668190432497429 0 1 -1
182 37 2 0 1.7426416215223544 -10.397145116142699 -3.3746194770959264 -1 -1 1
183 37 2 0 1.1259436005895669 -9.030509760032379 -4.299480726590673 -1 -1 1
184 37 2 0 1.1279446612148707 -8.978882939587693 -2.5432009090678047 -1 -1 1
56 12 1 0 1.4026961340848363 -6.969588869573508 -5.610531361919732 0 0 -1
185 37 2 0 2.6352309358909487 -8.878192631264739 -3.398817956657574 -1 -1 1
256 52 1 0 5.24650962845433 -8.076882209769327 -4.370883761000691 1 -1 1
58 12 2 0 1.7066642230580946 -6.596162156677997 -4.638982728806212 0 0 -1
181 37 1 0 1.651616850210445 -9.329336656074119 -3.4238452720276733 -1 -1 1
260 52 2 0 5.236039846806804 -8.297041397734818 -3.2966732837531865 1 -1 1
258 52 2 0 4.45546395938981 -8.63832882866159 -4.868928730166834 1 -1 1
836 168 1 0 3.205072238787169 -6.60432897279454 -0.5456124014002999 -1 -1 -1
40 8 2 0 3.3058636492288063 -11.356559341538805 -4.778371828685482 0 -1 0
4 1 2 0 3.1473086659325844 -10.31278872764486 -1.3379531374268847 0 1 -1
36 8 1 0 4.1974267987205 -11.575140215533601 -5.371315053959651 0 -1 0
2 1 2 0 3.8737159556421314 -11.666239827459664 -0.40704979180289236 0 1 -1
257 52 2 0 5.110055861052388 -7.00002100801417 -4.499000432922488 1 -1 1
838 168 2 0 2.8326826595991577 -7.174182207268742 -1.395030143372347 -1 -1 -1
687 138 2 0 0.17418120379268842 -6.364799905780792 -2.1486706688304373 1 1 0
3 1 2 0 4.383315961603998 -10.006791719900198 -0.12492410514627394 0 1 -1
767 154 2 0 9.211850659373056 -9.843699398626297 -5.790314159448242 0 1 0
769 154 2 0 9.308738974632888 -11.39414641721252 -4.902291314359871 0 1 0
766 154 1 0 8.6676624437465 -10.71440563928428 -5.45908353924577 0 1 0
1135 227 2 0 10.710764757947135 -10.606738480452961 -3.4038911000570167 1 2 0
1133 227 2 0 12.018856500183935 -11.569619204080219 -2.7411499181607333 1 2 0
259 52 2 0 6.211268151223081 -8.323303430536606 -4.798220377713782 1 -1 1
715 143 2 0 7.964069172476584 -9.011291509993907 -2.5561725735509135 0 -1 1
714 143 2 0 6.979634201886814 -10.366477288670836 -2.040679144057444 0 -1 1
288 58 2 0 10.356742454827561 -6.724123488735873 -5.648595041495181 0 -1 -1
858 172 2 0 6.1907798774483425 -6.34846205317458 -1.3142529224381185 -2 -3 -2
713 143 2 0 8.652259186323487 -10.289558279498149 -1.4757988461489457 0 -1 1
712 143 2 0 7.4406528194752894 -9.157560397021832 -0.8527080954264044 0 -1 1
770 154 2 0 7.849364589414588 -10.45543985850541 -4.800434594518144 0 1 0
1131 227 1 0 11.76655813647788 -10.597228647766054 -3.14590185503757 1 2 0
287 58 2 0 11.056481568553963 -7.830812638640558 -4.400536030692504 0 -1 -1
1134 227 2 0 11.938966674721271 -9.86309975252231 -2.3786712986088734 1 2 0
286 58 1 0 11.006178508199731 -7.600927007845429 -5.485509248648486 0 -1 -1
711 143 1 0 7.76918671309091 -9.69907122777483 -1.7208826484777795 0 -1 1
1023 205 2 0 10.69484877868695 -7.90714072411816 -0.08079100128841255 1 0 -2
140 28 2 0 -6.333437162654917 -4.249256610710093 -5.803743877534344 -1 2 2
189 38 2 0 -10.52651223121921 -1.7535425258856794 -4.401243422748821 0 2 0
957 192 2 0 -9.580285093118079 -1.7303351252402006 -0.34368677383751844 -1 0 0
190 38 2 0 -8.827028813940116 -2.246687432724391 -4.570162114038164 0 2 0
495 99 2 0 -9.942188812497784 -5.984913461286305 -0.552386517115588 -1 1 0
188 38 2 0 -9.534763413308733 -2.227038819286312 -2.945915579892107 0 2 0
139 28 2 0 -7.388767453457804 -3.804344126466283 -4.452827700199592 -1 2 2
137 28 2 0 -6.76355034294326 -5.531484712052316 -4.608168158973144 -1 2 2
136 28 1 0 -7.1007696236632665 -4.619996981636345 -5.130880370931006 -1 2 2
138 28 2 0 -7.990280956317738 -4.867553190984022 -5.712546323526265 -1 2 2
186 38 1 0 -9.541634150858542 -1.7067132029559726 -3.9252115229094127 0 2 0
187 38 2 0 -9.265510452416335 -0.6637783044965957 -3.78690917884445 0 2 0
1074 215 2 0 -8.631093839528774 -4.301139427317192 -1.2759555945655272 -2 0 2
1071 215 1 0 -7.60122770527946 -4.049803104336848 -1.5253134511649495 -2 0 2
1075 215 2 0 -6.9487222094021455 -4.317294038262312 -0.7027544435853219 -2 0 2
1073 215 2 0 -7.538336716423642 -2.989709441514842 -1.776446406987521 -2 0 2
1072 215 2 0 -7.307070575188214 -4.620601498241615 -2.3956493961765837 -2 0 2
204 41 2 0 -11.681919234052405 -4.22237459490702 -4.147085686361916 0 1 1
149 30 2 0 -6.639340788070045 -0.8625168127042642 -4.358821470738847 1 1 3
494 99 2 0 -11.362326908648715 -5.036391519927607 -0.256416910717185 -1 1 0
774 155 2 0 -6.002231323005542 -0.11017515159412561 -0.7844764072147985 -3 -3 2
1152 231 2 0 -3.6913840520467893 -3.9635251807423977 -5.541576825769873 1 2 2
1070 214 2 0 -2.0251410599268347 -0.5341156064430432 -5.879947905154017 2 -1 0
689 138 2 0 -1.1554000343450284 -5.98671184313729 -3.310965564099156 1 1 0
230 46 2 0 -4.5208691753699375 -5.232858903652203 -3.9172476207565214 -1 -3 2
228 46 2 0 -3.5197329002209106 -5.975610506250964 -2.614169909800765 -1 -3 2
482 97 2 0 -4.149311094809798 -3.1883862874943105 -0.6129576369693268 -2 -2 3
481 97 1 0 -3.350824367540346 -2.772653927292307 -1.2185892104300056 -2 -2 3
483 97 2 0 -3.6468943019162694 -2.7691746114589275 -2.2782158316491596 -2 -2 3
150 30 2 0 -4.943134143859348 -1.1887929047071335 -4.919118671869808 1 1 3
146 30 1 0 -5.6013768165064315 -1.0780226988536903 -4.055383860083884 1 1 3
485 97 2 0 -2.4596349573156413 -3.3766638703778398 -1.1061311881407168 -2 -2 3
530 106 2 0 -0.5381839180496044 -2.581239885578036 -4.879118889645038 1 1 3
526 106 1 0 -0.8901617939316839 -2.54572229691631 -3.8434708387393393 1 1 3
529 106 2 0 -1.1142884142270777 -3.5407393633187816 -3.5370562444245657 1 1 3
528 106 2 0 -0.13094369549520657 -2.114915519368484 -3.203065683793195 1 1 3
527 106 2 0 -1.7846556053643194 -1.9215451754488004 -3.8223073136154113 1 1 3
148 30 2 0 -5.541973908573968 -2.0102190572178937 -3.496809589045709 1 1 3
688 138 2 0 -1.3091826359382512 -5.472280840601114 -1.6045842117924334 1 1 0
484 97 2 0 -3.1884267548702674 -1.7397969618795468 -0.870694156986076 -2 -2 3
147 30 2 0 -5.210757160460111 -0.2604941761231352 -3.4547708481476658 1 1 3
698 140 2 0 1.7062998317740856 -1.313070199777309 -5.855245488290228 -1 3 -1
267 54 2 0 0.8864780050059249 -3.6422389382004017 -1.1031374241726848 -1 -1 -1
700 140 2 0 0.3814816684433975 -0.3554951833832156 -5.093022286396549 -1 3 -1
839 168 2 0 2.4632499409329878 -5.8414053684990686 -0.31462631564545873 -1 -1 -1
696 140 1 0 1.2869510330135459 -0.2831155012748017 -5.702560697705575 -1 3 -1
719 144 2 0 4.211230869023975 -2.2859679126819135 -1.3928293319053076 -1 2 -1
1008 202 2 0 2.3310572534225287 -0.48983673743582834 -2.781762589899653 0 -1 0
282 57 2 0 4.5652994600662495 -1.8647042907589224 -5.844458036360351 0 0 0
281 57 1 0 5.3360171100752325 -1.3781532264420076 -5.311816383518424 0 0 0
994 199 2 0 3.4023516516305126 -3.6145502827723934 -4.025970194946284 0 -3 2
993 199 2 0 2.5186313538849063 -2.8284691585607398 -2.7287086361141757 0 -3 2
1007 202 2 0 1.690788758270548 -1.3830191713804414 -1.3952070174176665 0 -1 0
992 199 2 0 3.120616124870404 -4.493148860883074 -2.4951572410648613 0 -3 2
991 199 1 0 2.7015846460204145 -3.7802973180348243 -3.2196420894250632 0 -3 2
995 199 2 0 1.7784385629495727 -4.1633116239971955 -3.6418053327118542 0 -3 2
718 144 2 0 5.575279010745422 -2.222289472523725 -0.23195685835032265 -1 2 -1
283 57 2 0 5.674651627179216 -2.029688900962647 -4.483838974539739 0 0 0
716 144 1 0 4.971856948875182 -1.6443483824075162 -0.9488797446969386 -1 2 -1
1006 202 1 0 1.8125151396935344 -0.38600135136729286 -1.8294599320928011 0 -1 0
720 144 2 0 5.623870601646505 -1.2244586371116508 -1.7410665728403796 -1 2 -1
717 144 2 0 4.50251235727859 -0.7850221912623834 -0.45898217476360514 -1 2 -1
285 57 2 0 4.909671951427917 -0.4198446589831111 -4.918334391600559 0 0 0
266 54 1 0 0.6173529412496386 -3.623838990127206 -0.06593455750165056 -1 -1 -1
215 43 2 0 9.743795842733551 -0.19391735100423624 -3.6748656142027514 -1 -2 -2
1062 213 2 0 8.159333756468246 -3.7479070167910216 -5.753433260784469 2 -1 -1
860 172 2 0 7.617838262541891 -5.885245257594677 -0.3079100894787885 -2 -3 -2
1199 240 2 0 9.65033972563667 -3.2058600803852784 -1.5903241623835367 0 1 1
1196 240 1 0 10.006560427876519 -2.973997688110593 -0.5737997692095682 0 1 1
205 41 2 0 11.483276205992695 -5.50508221295425 -3.2305493352643087 -1 1 1
856 172 1 0 6.939967995914081 -5.574791203261769 -1.1172190965282702 -2 -3 -2
857 172 2 0 6.371941051838519 -4.688458988381005 -0.8691615087101141 -2 -3 -2
859 172 2 0 7.527322105757374 -5.365924775753243 -2.024608154638596 -2 -3 -2
1265 253 2 0 10.848280135730342 -0.43249180349635985 -0.21306802774468458 0 1 0
201 41 1 0 11.423774060793523 -4.528671812821692 -3.6958291345009577 -1 1 1
203 41 2 0 10.649463937470241 -4.541086465787069 -4.476450814935815 -1 1 1
202 41 2 0 11.1058983975215 -3.8419775320541287 -2.9280618399867873 -1 1 1
1063 213 2 0 6.760911807785185 -4.812597456541034 -5.822685704994555 2 -1 -1
1061 213 1 0 7.532145727954834 -4.4020778519900405 -5.1824703627925315 2 -1 -1
284 57 2 0 6.20014316630936 -1.1880108415414465 -5.950458896989757 0 0 0
213 43 2 0 10.096601074597132 -1.7754616420398879 -4.452030513900044 -1 -2 -2
212 43 2 0 8.46942682266846 -1.1207918598745046 -4.537407176299511 -1 -2 -2
214 43 2 0 9.829553495111767 -0.29006521911978744 -5.416902010434106 -1 -2 -2
1064 213 2 0 8.147858031582917 -5.179550069654226 -4.740729506921627 2 -1 -1
211 43 1 0 9.548503247332285 -0.8378708059534521 -4.5334632900788385 -1 -2 -2
1198 240 2 0 11.107242180320643 -2.7718730120402757 -0.625136209995123 0 1 1
1065 213 2 0 7.090366046618051 -3.8543420521320932 -4.360244823914941 2 -1 -1
1200 240 2 0 9.460302204730077 -2.1371073139815824 -0.1414440312161478 0 1 1
506 102 1 0 -8.672229279679218 1.0760374058120874 -10.026554081877768 -1 -1 1
79 16 2 0 -8.30910234837173 5.7730673261351875 -8.091013770060014 2 2 -1
78 16 2 0 -8.092157748839725 4.065531934579006 -8.503268826120156 2 2 -1
509 102 2 0 -8.08324532130925 0.15984492540260575 -9.87838145405524 -1 -1 1
746 150 1 0 -11.401284786867025 0.8216630176559718 -6.863402033005985 -1 -1 -3
748 150 2 0 -10.895321269346386 1.7365638044776102 -6.581019302388495 -1 -1 -3
508 102 2 0 -8.2946341302561 1.6267584728197235 -10.886265656954743 -1 -1 1
507 102 2 0 -8.575629067206647 1.6884308006940056 -9.138911432247596 -1 -1 1
510 102 2 0 -9.735404292221876 0.8527811036451869 -10.143943461645978 -1 -1 1
1259 252 2 0 -6.185824633093087 2.5012114747561416 -8.309741167636439 1 -2 -1
469 94 2 0 -8.809843203556078 5.9652639541254295 -10.827779880542726 1 0 1
750 150 2 0 -11.076263981805663 0.03807317255483511 -6.201050294196033 -1 -1 -3
80 16 2 0 -6.644582750862663 5.093153639038569 -8.211213035138345 2 2 -1
76 16 1 0 -7.6930793059672835 4.90814393704332 -7.915938643197678 2 2 -1
77 16 2 0 -7.752548585555085 4.665868906627583 -6.836704696589004 2 2 -1
734 147 2 0 -11.711688942248852 4.345085586348251 -11.639522241779394 -1 0 0
1123 225 2 0 -7.9494522601544375 2.1368869332394524 -6.2597403047597995 0 -1 1
1257 252 2 0 -6.287599942733863 0.9376334916805096 -7.489930798145015 1 -2 -1
747 150 2 0 -11.133662262769475 0.5829628494843977 -7.88592591920605 -1 -1 -3
1260 252 2 0 -4.674058654569822 1.5793854136573149 -7.962742217683011 1 -2 -1
1258 252 2 0 -5.816911121387223 1.0809105961770893 -9.22065495458305 1 -2 -1
1256 252 1 0 -5.739147867547613 1.5128938344491942 -8.24521858686676 1 -2 -1
198 40 2 0 -4.868697758060573 3.64730269207214 -10.296823547651865 -1 1 1
196 40 1 0 -4.987518172703167 4.126223815153477 -11.25047625375116 -1 1 1
1066 214 1 0 -2.256294219918571 0.48767011548557093 -6.1039470639063165 2 -1 0
200 40 2 0 -5.9719889982055365 4.584213418376411 -11.310688208397377 -1 1 1
1069 214 2 0 -1.3348421906397707 0.9213962082753309 -6.562653289794531 2 -1 0
977 196 2 0 -3.024270409875813 4.85796128994544 -7.920532935266542 -1 -1 2
978 196 2 0 -2.599616022825055 3.821767107634704 -6.540399304472682 -1 -1 2
976 196 1 0 -2.3385763440850607 4.7232832458125245 -7.085523063531719 -1 -1 2
980 196 2 0 -2.4082335425350507 5.586569985822059 -6.413778875077822 -1 -1 2
261 53 1 0 -1.9147814169272976 1.926268445285583 -9.672967034224083 0 1 0
263 53 2 0 -1.2676826415879603 2.765559434011834 -9.425098909396871 0 1 0
264 53 2 0 -2.9237899338706193 2.295323297919083 -9.7813042677651 0 1 0
199 40 2 0 -4.165514349444156 4.83386760666448 -11.360418918232883 -1 1 1
197 40 2 0 -4.921112982543655 3.3698163439599007 -12.018664812831537 -1 1 1
265 53 2 0 -1.871372282991377 1.1743390341542312 -8.867246538709749 0 1 0
262 53 2 0 -1.569889213454415 1.4592658271542494 -10.60773319291319 0 1 0
100 20 2 0 -0.19138670190771023 5.784832792058701 -10.858487378990555 0 2 1
979 196 2 0 -1.3143972255774603 4.666976202788568 -7.458465173605691 -1 -1 2
1068 214 2 0 -3.0787398004816087 0.5479450484937143 -6.812052953141649 2 -1 0
98 20 2 0 -0.7601797416631015 4.116212220582906 -11.149379115405804 0 2 1
96 20 1 0 0.06570586451217864 4.789594425381491 -11.248926552118979 0 2 1
99 20 2 0 0.9286693246993298 4.42334908954761 -10.685585681835203 0 2 1
107 22 2 0 1.4706468091698195 2.207317260580087 -9.86528661505592 -2 0 1
110 22 2 0 3.1810702605894257 1.809610913019192 -10.036125496011964 -2 0 1
1168 234 2 0 2.3449198181219977 3.964671688685522 -8.11720734798342 0 2 1
1167 234 2 0 0.8638169019339053 3.3939049213898027 -7.345604870285076 0 2 1
1166 234 1 0 1.5369490766429514 4.238726999801845 -7.440965444420051 0 2 1
1169 234 2 0 1.0057529685863873 5.103136020907868 -7.8007670671627345 0 2 1
1170 234 2 0 1.9496115049806253 4.468159259611568 -6.469572535092645 0 2 1
1160 232 2 0 5.9141726737167915 3.871266098663165 -8.617364107886363 1 2 0
217 44 2 0 4.119855187227074 1.738933488404955 -6.0267007719900745 -3 1 1
216 44 1 0 4.15317740402913 1.9159570917248079 -7.084836588286512 -3 1 1
220 44 2 0 4.565606330721742 2.933282424718106 -7.2766929251840375 -3 1 1
108 22 2 0 2.037513635924494 0.4662139123802085 -10.056442432276832 -2 0 1
219 44 2 0 3.1505315492504824 1.8097906339696976 -7.465511474808311 -3 1 1
106 22 1 0 2.182548094646199 1.5278318668711908 -10.339134047468065 -2 0 1
109 22 2 0 2.0310054988759294 1.6076396808665194 -11.427121757085626 -2 0 1
697 140 2 0 1.0365049526229448 0.15271913411587335 -6.676300886576971 -1 3 -1
765 153 2 0 5.134727100588275 0.4347863782644801 -10.427105966294716 1 1 1