6144
# CELL(abcABC):   46.58588    46.58588    46.58588    90.00000    90.00000    90.00000  Step:        2080  Bead:       0 positions{angstrom}  cell{angstrom}
       O -2.18234e+00  2.18836e+01 -2.14383e+01
       H -2.68139e+00  2.17679e+01 -2.23072e+01
       H -1.66828e+00  2.10766e+01 -2.13971e+01
       O  1.44241e+01 -1.95220e+01 -1.17687e+01
       H  1.46758e+01 -2.04031e+01 -1.20914e+01
       H  1.50867e+01 -1.94755e+01 -1.10384e+01
       O -1.72140e+01 -1.42024e+01  7.93085e+00
       H -1.62757e+01 -1.39855e+01  7.76929e+00
       H -1.74952e+01 -1.46651e+01  7.12985e+00
       O  2.12893e+01  1.65216e+00 -4.53136e+00
       H  2.12537e+01  7.48021e-01 -4.21293e+00
       H  2.11632e+01  1.46684e+00 -5.51295e+00
       O -3.50355e+00  1.62943e+01  1.75223e+01
       H -3.13709e+00  1.71907e+01  1.74887e+01
       H -2.81884e+00  1.56215e+01  1.76713e+01
       O  5.98241e+00  2.13590e+01  4.41224e+00
       H  6.86132e+00  2.15081e+01  3.99322e+00
       H  5.93639e+00  2.03763e+01  4.52983e+00
       O -2.38654e+01  1.49369e+01 -2.87788e+00
       H -2.38006e+01  1.57304e+01 -2.32350e+00
       H -2.48393e+01  1.47752e+01 -3.05070e+00
       O  1.47751e+01  1.20955e+01  6.49542e+00
       H  1.40503e+01  1.21600e+01  5.81402e+00
       H  1.53998e+01  1.28378e+01  6.39999e+00
       O -1.56132e+01 -3.17491e+00  8.42929e-01
       H -1.48147e+01 -2.96192e+00  3.16782e-01
       H -1.53596e+01 -4.06266e+00  1.11378e+00
       O -1.22140e+01 -1.43951e+01 -5.66215e+00
       H -1.29937e+01 -1.39844e+01 -6.14674e+00
       H -1.22727e+01 -1.52674e+01 -6.01806e+00
       O  2.42921e+00 -4.51058e+00  3.66603e+00
       H  2.71458e+00 -3.55547e+00  3.87482e+00
       H  2.78920e+00 -5.03931e+00  4.40430e+00
       O  2.05364e+01  2.28535e+00 -1.74241e+01
       H  2.11815e+01  2.93027e+00 -1.76427e+01
       H  2.03964e+01  1.84618e+00 -1.82967e+01
       O -5.29249e+00  1.32874e+01 -1.51132e+01
       H -4.37603e+00  1.29250e+01 -1.52821e+01
       H -5.05229e+00  1.41451e+01 -1.46948e+01
       O -2.21324e+01  4.39692e-02 -1.55726e+01
       H -2.29928e+01 -3.53437e-01 -1.58281e+01
       H -2.24079e+01  5.15787e-01 -1.47559e+01
       O -1.76197e+01  4.52150e-01  2.21172e+01
       H -1.78753e+01  1.12786e+00  2.28039e+01
       H -1.84528e+01  9.09311e-02  2.17456e+01
       O -2.21254e+01  6.30352e+00  4.08759e+00
       H -2.18846e+01  5.54308e+00  3.49573e+00
       H -2.16434e+01  7.11253e+00  3.81532e+00
       O  6.24303e+00  6.13783e+00 -1.63113e+01
       H  6.19549e+00  5.41070e+00 -1.56701e+01
       H  5.29097e+00  6.40924e+00 -1.62683e+01
       O  1.57385e+01  1.65242e+01  6.24824e+00
       H  1.50666e+01  1.63920e+01  6.95683e+00
       H  1.54174e+01  1.71408e+01  5.57097e+00
       O  8.34674e+00 -1.87523e+01 -1.61975e+01
       H  8.74408e+00 -1.78959e+01 -1.61864e+01
       H  8.93529e+00 -1.93458e+01 -1.66985e+01
       O  7.99600e-01  1.51327e+01 -1.18413e+00
       H  1.56911e+00  1.57364e+01 -1.07499e+00
       H  1.70388e-01  1.56186e+01 -1.73173e+00
       O  1.25548e+01 -6.68613e+00 -4.90142e+00
       H  1.33879e+01 -6.25972e+00 -4.81307e+00
       H  1.23749e+01 -6.92744e+00 -3.97394e+00
       O -3.03560e+00 -3.65296e+00  2.20166e+00
       H -2.89554e+00 -2.70727e+00  2.05669e+00
       H -3.38238e+00 -3.84370e+00  3.07777e+00
       O -1.23145e+01 -7.21205e+00 -2.27079e+01
       H -1.23509e+01 -7.24781e+00 -2.36740e+01
       H -1.32022e+01 -6.87463e+00 -2.25671e+01
       O -2.14796e+01 -2.07895e+01  2.04815e+01
       H -2.09672e+01 -2.11408e+01  1.97273e+01
       H -2.07550e+01 -2.06389e+01  2.10838e+01
       O -1.10097e+01 -1.67223e+01 -1.05991e+01
       H -1.14808e+01 -1.70362e+01 -9.80800e+00
       H -1.09139e+01 -1.74671e+01 -1.12091e+01
       O  2.17436e+01 -6.48427e+00  8.29702e+00
       H  2.08175e+01 -6.43280e+00  8.42770e+00
       H  2.21065e+01 -6.75618e+00  9.21146e+00
       O -1.73070e+01  9.71720e+00 -8.15765e+00
       H -1.68013e+01  9.41243e+00 -8.96319e+00
       H -1.67044e+01  1.03851e+01 -7.85298e+00
       O -1.15153e+00 -1.35622e+01  1.01992e+01
       H -2.02809e+00 -1.38563e+01  9.93456e+00
       H -1.25745e+00 -1.32177e+01  1.10880e+01
       O -9.21858e-01 -9.94970e+00  4.13082e+00
       H -1.18455e+00 -9.07063e+00  3.77941e+00
       H -1.52090e+00 -1.00801e+01  4.82155e+00
       O -1.85678e+01  4.28264e+00  7.39973e+00
       H -1.86217e+01  3.71458e+00  6.57454e+00
       H -1.76434e+01  4.10800e+00  7.64957e+00
       O  3.91064e+00  2.36660e+01  1.03601e+01
       H  3.27305e+00  2.30430e+01  1.06595e+01
       H  4.78267e+00  2.32319e+01  1.05684e+01
       O  2.12381e+00 -1.67542e+00 -2.04148e+01
       H  1.86302e+00 -9.07444e-01 -2.08677e+01
       H  2.45046e+00 -2.28726e+00 -2.11173e+01
       O -1.72178e+01 -1.36565e+01  2.05464e+01
       H -1.69971e+01 -1.27204e+01  2.07142e+01
       H -1.65143e+01 -1.39160e+01  1.99493e+01
       O -1.87731e+01 -3.65220e+00  1.46978e+00
       H -1.80390e+01 -2.99456e+00  1.55269e+00
       H -1.84984e+01 -4.47788e+00  1.89251e+00
       O  9.07404e+00  1.26582e+01  7.71613e+00
       H  9.74318e+00  1.29885e+01  7.11680e+00
       H  8.80870e+00  1.18215e+01  7.35744e+00
       O -1.22369e+01 -9.55131e+00  4.70635e+00
       H -1.26800e+01 -1.01006e+01  5.36714e+00
       H -1.17491e+01 -8.94100e+00  5.24443e+00
       O -8.08117e-01  1.16312e+01 -1.79612e+01
       H -1.59739e+00  1.15261e+01 -1.74355e+01
       H -3.53241e-01  1.08087e+01 -1.77596e+01
       O -5.52099e+00  7.98600e-01  7.41989e+00
       H -6.11536e+00  2.68859e-01  6.88355e+00
       H -4.72922e+00  2.86460e-01  7.66937e+00
       O  1.79430e+01  1.07015e+01 -1.18297e+01
       H  1.80115e+01  9.98154e+00 -1.24057e+01
       H  1.74932e+01  1.03747e+01 -1.10731e+01
       O -6.19764e+00 -5.09934e+00  1.23508e+01
       H -6.29185e+00 -5.55227e+00  1.14786e+01
       H -6.75926e+00 -4.32582e+00  1.21271e+01
       O -1.73029e+01  2.28202e+01  3.27707e+00
       H -1.79948e+01  2.24140e+01  2.72253e+00
       H -1.77195e+01  2.29099e+01  4.13214e+00
       O  1.02974e+01  1.09121e+01  9.75865e+00
       H  9.95795e+00  1.13953e+01  9.01744e+00
       H  1.12930e+01  1.09437e+01  9.76667e+00
       O -1.11085e+01  2.87795e+00  1.39168e+01
       H -1.18148e+01  2.23460e+00  1.42223e+01
       H -1.14764e+01  3.72449e+00  1.43320e+01
       O  6.82423e-01  1.94403e+01 -1.25434e+01
       H  3.67162e-01  1.94162e+01 -1.16521e+01
       H  1.63070e+00  1.94321e+01 -1.26105e+01
       O -2.06977e+00  3.84018e+00  2.13391e+01
       H -2.11923e+00  2.99390e+00  2.07851e+01
       H -2.79439e+00  4.43590e+00  2.10721e+01
       O -4.91413e-03 -1.87100e+01 -2.04874e+01
       H  6.36138e-01 -1.94132e+01 -2.04037e+01
       H -8.36389e-01 -1.90315e+01 -2.07856e+01
       O  9.40400e+00  3.31286e+00 -1.40678e+01
       H  1.03442e+01  3.32995e+00 -1.43213e+01
       H  9.35353e+00  3.56706e+00 -1.31700e+01
       O  1.19374e+01 -2.25191e+00  1.35794e+00
       H  1.13274e+01 -1.82381e+00  6.54374e-01
       H  1.17074e+01 -3.16091e+00  1.31017e+00
       O -1.61516e+01  9.42727e+00  4.95269e+00
       H -1.57731e+01  8.63101e+00  4.56531e+00
       H -1.67065e+01  9.72241e+00  4.23239e+00
       O  2.14185e+01 -1.63462e+00  8.21363e+00
       H  2.21494e+01 -1.38256e+00  7.64205e+00
       H  2.07227e+01 -1.78998e+00  7.56455e+00
       O -1.68125e+01 -1.94764e+01 -6.51141e+00
       H -1.75578e+01 -1.89358e+01 -6.67510e+00
       H -1.70633e+01 -2.02954e+01 -6.05528e+00
       O -1.72285e+01 -9.38596e+00 -1.71140e+01
       H -1.79989e+01 -9.77198e+00 -1.67945e+01
       H -1.75275e+01 -8.68499e+00 -1.77208e+01
       O  1.35525e+01  1.75322e+01  1.87384e+01
       H  1.34003e+01  1.71817e+01  1.78131e+01
       H  1.27619e+01  1.71492e+01  1.92213e+01
       O -1.14846e+01 -1.41795e+01 -8.17391e-01
       H -1.18609e+01 -1.48292e+01 -1.41082e+00
       H -1.21459e+01 -1.35266e+01 -5.58902e-01
       O -5.54877e+00  3.24788e+00  6.28473e+00
       H -5.47318e+00  2.31372e+00  6.59932e+00
       H -6.35851e+00  3.22962e+00  5.79458e+00
       O  1.10322e+01  6.12199e+00  1.69243e+01
       H  1.17991e+01  6.59508e+00  1.66101e+01
       H  1.03677e+01  6.74396e+00  1.70931e+01
       O -1.66395e+01  2.78660e+00 -1.86157e+01
       H -1.75283e+01  2.72236e+00 -1.82265e+01
       H -1.66236e+01  1.88560e+00 -1.90462e+01
       O -2.09058e+01  2.25445e+01 -2.42226e+01
       H -2.12063e+01  2.34549e+01 -2.41633e+01
       H -2.03406e+01  2.24973e+01 -2.49605e+01
       O -1.60649e+01  1.14434e+01 -1.30572e+01
       H -1.69366e+01  1.09852e+01 -1.28545e+01
       H -1.62343e+01  1.15365e+01 -1.40427e+01
       O  1.48575e+01  9.17431e+00  9.65098e+00
       H  1.50738e+01  9.63160e+00  8.78663e+00
       H  1.49209e+01  8.19629e+00  9.64128e+00
       O  7.47359e+00  1.26564e+00 -2.07384e+01
       H  8.08371e+00  5.77310e-01 -2.08142e+01
       H  7.37738e+00  1.82952e+00 -2.15136e+01
       O -6.49054e+00  1.11345e+01 -1.34019e+01
       H -6.14124e+00  1.18017e+01 -1.40442e+01
       H -5.83647e+00  1.05131e+01 -1.31619e+01
       O -3.79761e+00 -5.40063e+00  4.06162e+00
       H -4.48806e+00 -5.85302e+00  3.52323e+00
       H -4.22293e+00 -5.38519e+00  4.91985e+00
       O  2.24783e+01 -1.44364e+01  1.45280e+01
       H  2.15271e+01 -1.41821e+01  1.44447e+01
       H  2.27877e+01 -1.39754e+01  1.53708e+01
       O -5.48212e+00  2.03414e+01  2.04654e+01
       H -5.13824e+00  2.05953e+01  1.95842e+01
       H -6.02896e+00  2.11118e+01  2.07223e+01
       O  4.07207e+00  1.29933e+01  2.82837e+00
       H  3.52182e+00  1.34582e+01  3.46737e+00
       H  3.68147e+00  1.32238e+01  1.96970e+00
       O -2.07704e+01 -1.59922e+00 -5.91686e+00
       H -2.15703e+01 -1.89046e+00 -5.47234e+00
       H -2.06245e+01 -7.62698e-01 -5.53843e+00
       O -2.22936e+01  2.01436e+01 -4.59031e+00
       H -2.32471e+01  2.01704e+01 -4.47629e+00
       H -2.21560e+01  1.92132e+01 -4.87650e+00
       O -1.48818e+01 -7.79406e+00  1.88110e+01
       H -1.40919e+01 -8.14638e+00  1.84470e+01
       H -1.50874e+01 -8.11627e+00  1.96977e+01
       O  5.81170e+00 -1.89931e+01  1.71862e+01
       H  6.27399e+00 -1.95912e+01  1.77584e+01
       H  6.44123e+00 -1.88405e+01  1.64301e+01
       O -4.74591e-01 -1.82297e+01  4.72777e+00
       H -2.56958e-01 -1.90903e+01  4.37460e+00
       H -1.26711e+00 -1.78390e+01  4.37449e+00
       O -2.34316e+01 -1.28315e+01 -1.52501e+01
       H -2.36291e+01 -1.21485e+01 -1.46701e+01
       H -2.42356e+01 -1.33918e+01 -1.53142e+01
       O  5.16924e+00  1.79184e+00 -1.54198e+01
       H  5.41343e+00  2.69994e+00 -1.51792e+01
       H  5.39740e+00  1.68180e+00 -1.63461e+01
       O  2.77669e+00 -1.71119e+01 -2.33725e+01
       H  2.34981e+00 -1.66790e+01 -2.26074e+01
       H  3.22704e+00 -1.79597e+01 -2.31179e+01
       O -5.13131e+00  1.11048e+01  5.04399e+00
       H -5.68777e+00  1.03428e+01  4.99303e+00
       H -4.67736e+00  1.11980e+01  4.18194e+00
       O  2.19591e+00  2.93355e+00  1.26967e+01
       H  1.36468e+00  3.09085e+00  1.22101e+01
       H  2.21620e+00  1.93657e+00  1.26042e+01
       O -1.36884e+01 -1.36419e+01  7.61053e+00
       H -1.35810e+01 -1.27328e+01  7.40402e+00
       H -1.33548e+01 -1.38991e+01  8.47687e+00
       O -8.55726e+00  1.31038e+01 -5.98444e+00
       H -9.35796e+00  1.29038e+01 -5.46365e+00
       H -8.88894e+00  1.34815e+01 -6.81988e+00
       O  1.81401e+01 -5.19645e+00  1.92504e+01
       H  1.74296e+01 -5.08245e+00  1.86122e+01
       H  1.76214e+01 -5.36861e+00  2.00782e+01
       O  1.38411e+01  2.56646e-01 -1.12220e+01
       H  1.45761e+01 -3.21205e-01 -1.10718e+01
       H  1.41215e+01  8.52788e-01 -1.19240e+01
       O  1.68577e+01  9.83569e+00 -8.91521e+00
       H  1.63569e+01  9.12877e+00 -9.41628e+00
       H  1.66943e+01  9.66792e+00 -7.99993e+00
       O  2.04983e+01  1.68226e+01  1.07723e+01
       H  2.07054e+01  1.74746e+01  1.01467e+01
       H  1.95724e+01  1.66761e+01  1.05381e+01
       O  2.13462e+01 -3.94356e+00 -3.20979e+00
       H  2.12922e+01 -4.89475e+00 -3.14289e+00
       H  2.11666e+01 -3.46389e+00 -2.35210e+00
       O -8.66353e+00  1.93887e+00 -6.43734e+00
       H -7.99186e+00  1.57321e+00 -7.04012e+00
       H -8.09335e+00  2.17140e+00 -5.68115e+00
       O  1.03716e+01 -2.76987e+00  1.89787e+01
       H  9.73827e+00 -2.93214e+00  1.96800e+01
       H  1.09449e+01 -3.55137e+00  1.89731e+01
       O  7.96643e+00  1.51844e+01 -1.32396e+01
       H  7.87645e+00  1.58214e+01 -1.39526e+01
       H  8.65459e+00  1.55510e+01 -1.26358e+01
       O -1.49467e+01 -5.52397e+00  1.51347e+01
       H -1.47657e+01 -4.88342e+00  1.58312e+01
       H -1.56426e+01 -5.00880e+00  1.46561e+01
       O  8.85748e+00  1.63335e+01 -1.72638e+01
       H  8.86995e+00  1.54494e+01 -1.76261e+01
       H  9.66534e+00  1.64491e+01 -1.68194e+01
       O  2.15026e+01  4.94345e+00 -8.27779e+00
       H  2.16834e+01  4.31906e+00 -9.01532e+00
       H  2.06399e+01  5.34212e+00 -8.52658e+00
       O  9.54617e+00 -1.62779e+01 -1.60647e+01
       H  9.59516e+00 -1.53445e+01 -1.63824e+01
       H  9.81213e+00 -1.62207e+01 -1.51405e+01
       O  1.91998e+01 -1.88934e+01 -1.72888e+01
       H  1.88262e+01 -1.89277e+01 -1.64109e+01
       H  1.84995e+01 -1.90607e+01 -1.79238e+01
       O -1.25656e+01  8.47006e+00  4.53590e+00
       H -1.23256e+01  8.31273e+00  5.44446e+00
       H -1.27510e+01  9.38820e+00  4.58908e+00
       O -7.12028e+00  1.97660e+01 -2.35426e+00
       H -6.92315e+00  1.88302e+01 -2.00824e+00
       H -6.99965e+00  2.03876e+01 -1.62855e+00
       O -1.92841e+01 -1.10012e+01 -1.58340e+01
       H -1.90484e+01 -1.19891e+01 -1.58982e+01
       H -1.94083e+01 -1.07930e+01 -1.48916e+01
       O  8.40816e+00 -1.76941e+01  2.26237e+01
       H  7.70966e+00 -1.75161e+01  2.32625e+01
       H  8.80533e+00 -1.68453e+01  2.23557e+01
       O  4.45529e+00 -2.08783e+01  2.16251e+01
       H  5.10419e+00 -2.02399e+01  2.13559e+01
       H  3.84651e+00 -2.09724e+01  2.08459e+01
       O  1.11630e+01  1.96639e+01  1.49600e+00
       H  1.10307e+01  2.00977e+01  6.50026e-01
       H  1.03794e+01  1.91328e+01  1.65616e+00
       O -2.03128e+01  7.78854e+00 -3.47881e+00
       H -1.98719e+01  7.25420e+00 -2.80103e+00
       H -2.06594e+01  8.54833e+00 -2.97084e+00
       O  1.52112e+00  8.07738e+00  5.29457e+00
       H  1.77119e+00  8.26992e+00  6.18769e+00
       H  5.78877e-01  7.88650e+00  5.35901e+00
       O -1.91889e+01  2.21826e+01  2.02040e+01
       H -1.95393e+01  2.12465e+01  2.01237e+01
       H -1.82086e+01  2.20909e+01  2.01084e+01
       O  1.09391e+01  5.53467e+00  7.17232e+00
       H  1.05743e+01  6.01636e+00  7.89601e+00
       H  1.02593e+01  4.93756e+00  6.88216e+00
       O  1.52736e+01 -1.46786e+01 -1.74641e+01
       H  1.61483e+01 -1.50386e+01 -1.75333e+01
       H  1.50417e+01 -1.41163e+01 -1.82107e+01
       O -2.68888e+00 -1.39003e+01  1.25470e+01
       H -3.02874e+00 -1.30912e+01  1.29868e+01
       H -3.40578e+00 -1.43696e+01  1.21339e+01
       O -2.21161e+01 -1.08685e+01 -1.70189e+01
       H -2.13380e+01 -1.05013e+01 -1.65457e+01
       H -2.24632e+01 -1.16579e+01 -1.65129e+01
       O -4.07670e-01  1.96216e+01  2.17027e+01
       H -1.25293e+00  1.98767e+01  2.19793e+01
       H -1.41794e-01  2.03584e+01  2.11290e+01
       O  1.73445e+01 -2.45232e+00  2.18825e+01
       H  1.79890e+01 -2.27050e+00  2.12149e+01
       H  1.76725e+01 -3.30526e+00  2.22451e+01
       O  1.17548e+01 -1.33473e+01  7.80897e+00
       H  1.26655e+01 -1.33175e+01  8.17101e+00
       H  1.14495e+01 -1.24180e+01  7.82693e+00
       O  1.45542e+01  4.12955e+00 -8.72478e+00
       H  1.43112e+01  4.62460e+00 -7.95081e+00
       H  1.43590e+01  3.23112e+00 -8.47945e+00
       O -2.04306e+01 -8.73614e+00 -9.46897e+00
       H -2.09965e+01 -8.17150e+00 -9.02995e+00
       H -2.02091e+01 -8.32232e+00 -1.03362e+01
       O  2.02284e+01  2.15329e+01 -5.76765e+00
       H  1.96784e+01  2.20268e+01 -5.13325e+00
       H  1.99205e+01  2.16334e+01 -6.64749e+00
       O  8.11343e+00  5.85927e+00 -2.37466e+01
       H  7.79324e+00  5.31387e+00 -2.44420e+01
       H  8.93779e+00  6.20681e+00 -2.41249e+01
       O -1.85297e+01 -7.28993e+00 -1.87030e+01
       H -1.82991e+01 -7.27386e+00 -1.96238e+01
       H -1.94441e+01 -7.04289e+00 -1.84647e+01
       O  1.00557e+01  1.15497e+01  1.55005e+01
       H  1.01910e+01  1.21428e+01  1.47223e+01
       H  9.20762e+00  1.11196e+01  1.51799e+01
       O -7.30318e+00 -1.36862e+01  1.70493e+01
       H -6.90283e+00 -1.41251e+01  1.77992e+01
       H -6.70467e+00 -1.38336e+01  1.63479e+01
       O -1.36627e+01 -2.47410e+00 -2.12014e+01
       H -1.28783e+01 -3.09093e+00 -2.12443e+01
       H -1.34297e+01 -1.55805e+00 -2.13567e+01
       O  6.20531e+00  1.78372e+01  2.96701e+00
       H  5.79337e+00  1.69908e+01  2.89811e+00
       H  6.66948e+00  1.79535e+01  2.12931e+00
       O -1.13865e+01 -3.49756e+00 -7.52597e+00
       H -1.11390e+01 -2.76263e+00 -6.95224e+00
       H -1.23426e+01 -3.47052e+00 -7.51787e+00
       O -2.77072e+00  9.17685e+00 -5.60525e+00
       H -1.93121e+00  9.64061e+00 -5.68195e+00
       H -3.46167e+00  9.68454e+00 -5.11402e+00
       O -9.98848e+00  2.92850e+00 -3.34023e+00
       H -9.04513e+00  3.03980e+00 -3.56070e+00
       H -1.02705e+01  2.66054e+00 -4.23733e+00
       O -2.00108e+01 -1.67078e+01  4.82268e+00
       H -1.98114e+01 -1.75098e+01  4.38539e+00
       H -1.92599e+01 -1.60556e+01  4.89727e+00
       O -8.79537e+00 -2.86437e+00  2.18441e+01
       H -9.53269e+00 -2.92873e+00  2.12365e+01
       H -9.13492e+00 -2.67290e+00  2.27485e+01
       O -1.85002e+01  1.36585e+01 -1.75175e+01
       H -1.84100e+01  1.40183e+01 -1.84085e+01
       H -1.89525e+01  1.43510e+01 -1.70643e+01
       O  1.94473e+01  1.32641e+01  7.34999e+00
       H  1.86130e+01  1.31744e+01  6.86163e+00
       H  2.01591e+01  1.35865e+01  6.74546e+00
       O  8.62552e+00 -2.10617e+01 -5.89627e+00
       H  8.31876e+00 -2.06683e+01 -6.69242e+00
       H  9.13821e+00 -2.03812e+01 -5.39173e+00
       O  7.00504e+00  1.70190e+01 -1.53420e+01
       H  7.56624e+00  1.66490e+01 -1.60445e+01
       H  6.13316e+00  1.69730e+01 -1.57358e+01
       O  6.16217e-01 -3.80142e+00  1.32802e+01
       H  8.07105e-01 -3.56393e+00  1.41580e+01
       H  7.19353e-01 -4.75331e+00  1.33826e+01
       O  4.96350e+00  1.68328e+01  1.19453e+01
       H  4.53252e+00  1.64683e+01  1.27194e+01
       H  4.37558e+00  1.75726e+01  1.17340e+01
       O -1.50422e+01 -5.91366e+00 -2.22965e+01
       H -1.49856e+01 -5.27987e+00 -2.15620e+01
       H -1.59898e+01 -6.03547e+00 -2.24644e+01
       O -1.29194e+01  1.99827e+01 -3.72183e+00
       H -1.34976e+01  1.97812e+01 -2.96012e+00
       H -1.24747e+01  1.91826e+01 -4.06342e+00
       O -2.02158e+01 -1.30744e+01  4.82206e+00
       H -2.06175e+01 -1.31544e+01  3.94458e+00
       H -2.03052e+01 -1.22111e+01  5.22317e+00
       O  1.99118e+01  3.13291e+00  1.01154e+01
       H  2.03527e+01  2.29776e+00  9.85098e+00
       H  2.01890e+01  3.72955e+00  9.39106e+00
       O -4.55081e+00  3.04656e+00 -9.10485e-01
       H -4.98617e+00  2.41216e+00 -1.48818e+00
       H -3.87887e+00  3.47589e+00 -1.47441e+00
       O -5.87788e-01  2.93502e+00  1.02006e+01
       H -1.15650e+00  2.28829e+00  1.05412e+01
       H -1.16501e+00  3.61504e+00  9.85733e+00
       O  1.73680e+01  1.59923e+01  2.36458e+00
       H  1.78183e+01  1.54612e+01  1.64590e+00
       H  1.70092e+01  1.53562e+01  2.95993e+00
       O  1.65068e+01  8.45629e+00  1.82291e+00
       H  1.69785e+01  7.67087e+00  1.41502e+00
       H  1.59824e+01  8.10162e+00  2.53042e+00
       O  4.64948e+00  1.29988e-01  1.41388e+01
       H  4.66910e+00  3.78149e-01  1.50761e+01
       H  5.36680e+00 -5.16732e-01  1.40843e+01
       O -1.20322e+01 -1.92812e+01 -9.02879e-01
       H -1.29860e+01 -1.93760e+01 -8.64785e-01
       H -1.18525e+01 -1.92512e+01 -1.85684e+00
       O  1.01990e+01  2.06616e+01 -6.14522e+00
       H  1.08661e+01  2.05686e+01 -6.79504e+00
       H  9.72165e+00  2.15041e+01 -6.27797e+00
       O  6.57916e+00  6.17462e+00 -1.17161e+01
       H  6.47103e+00  6.17145e+00 -1.07295e+01
       H  7.27411e+00  6.83320e+00 -1.17688e+01
       O  1.81361e+01  1.50021e+01  1.01050e+01
       H  1.84747e+01  1.47541e+01  1.09840e+01
       H  1.85797e+01  1.44682e+01  9.45119e+00
       O  1.48698e+01 -1.65301e+01 -1.03662e+01
       H  1.40129e+01 -1.68683e+01 -1.07021e+01
       H  1.53859e+01 -1.73496e+01 -1.02273e+01
       O  1.14517e+01 -1.65684e+01 -1.01890e+00
       H  1.17386e+01 -1.71032e+01 -1.82810e+00
       H  1.10598e+01 -1.72270e+01 -4.78830e-01
       O -1.47177e+01 -3.75652e+00 -5.15446e+00
       H -1.41224e+01 -4.40604e+00 -4.81251e+00
       H -1.46417e+01 -2.97534e+00 -4.65112e+00
       O -9.46143e+00  9.82929e+00  6.24818e+00
       H -9.49944e+00  9.42831e+00  5.33601e+00
       H -8.75335e+00  9.29227e+00  6.68910e+00
       O  1.80817e+01  2.14170e+01 -1.05252e+01
       H  1.86623e+01  2.09598e+01 -1.11252e+01
       H  1.73099e+01  2.08768e+01 -1.05012e+01
       O -7.62148e+00 -1.39700e+01 -9.72175e+00
       H -7.99921e+00 -1.42160e+01 -1.05589e+01
       H -8.18241e+00 -1.32348e+01 -9.44324e+00
       O -2.23724e+01 -1.41363e+01 -2.31402e+01
       H -2.32741e+01 -1.39415e+01 -2.33598e+01
       H -2.22115e+01 -1.49881e+01 -2.35382e+01
       O -2.22821e+01 -1.57913e+01  2.79968e+00
       H -2.13313e+01 -1.58515e+01  3.12275e+00
       H -2.27380e+01 -1.60969e+01  3.59578e+00
       O  2.00186e+01  1.44261e+01 -3.43638e+00
       H  1.92705e+01  1.43819e+01 -2.84305e+00
       H  1.99595e+01  1.52886e+01 -3.92661e+00
       O  1.58953e+01  1.88928e+01  2.26652e+01
       H  1.49770e+01  1.87177e+01  2.23134e+01
       H  1.59152e+01  1.98320e+01  2.25252e+01
       O -2.98310e+00  6.59152e+00 -4.88014e+00
       H -2.91760e+00  6.60356e+00 -3.95615e+00
       H -2.87710e+00  7.43412e+00 -5.21749e+00
       O  9.95452e-01  1.96352e+01  7.60414e+00
       H  1.78736e+00  1.95720e+01  7.10520e+00
       H  6.03861e-01  2.04984e+01  7.43585e+00
       O -1.95014e+00 -7.73141e+00  3.00036e+00
       H -2.84890e+00 -7.43152e+00  3.11672e+00
       H -1.43054e+00 -6.91566e+00  3.02833e+00
       O -1.18052e+01  2.33452e+00  3.44018e+00
       H -1.18221e+01  2.63684e+00  4.41974e+00
       H -1.25928e+01  2.63750e+00  3.05492e+00
       O -2.62190e+00  1.18805e+01 -1.51730e+01
       H -1.84680e+00  1.24008e+01 -1.48955e+01
       H -2.68235e+00  1.10822e+01 -1.45717e+01
       O -3.09072e+00 -9.99742e+00  4.90552e-01
       H -3.49098e+00 -9.10092e+00  5.17383e-01
       H -2.41650e+00 -9.92936e+00  1.15688e+00
       O  1.86483e+00  1.64051e+00  1.88724e+01
       H  1.21365e+00  2.33132e+00  1.91026e+01
       H  1.45014e+00  8.25080e-01  1.86136e+01
       O  2.19435e+01 -9.01600e-01 -1.67146e+01
       H  2.20825e+01 -1.59588e+00 -1.74204e+01
       H  2.14600e+01 -2.08162e-01 -1.71263e+01
       O -2.74053e+00 -3.66383e+00  1.45174e+01
       H -3.59585e+00 -3.97653e+00  1.42077e+01
       H -2.29534e+00 -3.27726e+00  1.37783e+01
       O -4.03705e+00  8.56706e+00  1.13875e+01
       H -3.47789e+00  8.00665e+00  1.19163e+01
       H -3.49071e+00  9.10142e+00  1.07677e+01
       O -3.96260e+00  4.98554e+00  1.59496e+01
       H -4.67600e+00  4.51658e+00  1.54878e+01
       H -3.85496e+00  4.68013e+00  1.68454e+01
       O  1.29829e+01 -3.04333e+00 -1.67100e+01
       H  1.31655e+01 -3.86471e+00 -1.62499e+01
       H  1.19670e+01 -2.95543e+00 -1.66263e+01
       O  1.68664e+01 -1.05580e+01  1.92437e+01
       H  1.64627e+01 -1.03108e+01  1.83964e+01
       H  1.71396e+01 -1.14708e+01  1.91733e+01
       O  1.26214e+01  8.52298e+00 -2.12694e+01
       H  1.20638e+01  8.20208e+00 -2.19381e+01
       H  1.22389e+01  9.38834e+00 -2.10184e+01
       O -1.38799e+01  1.19568e+01  1.48413e+01
       H -1.31308e+01  1.24377e+01  1.44397e+01
       H -1.41360e+01  1.14885e+01  1.40732e+01
       O  1.65820e+01  8.81917e+00 -1.60925e+00
       H  1.62246e+01  8.93011e+00 -2.51627e+00
       H  1.59069e+01  8.49031e+00 -9.47886e-01
       O  1.08022e+01  2.14368e+01  3.93854e+00
       H  1.10823e+01  2.09250e+01  3.17938e+00
       H  1.09661e+01  2.06839e+01  4.61544e+00
       O  3.91790e+00  1.37953e+01 -2.13929e+01
       H  4.80591e+00  1.35468e+01 -2.10746e+01
       H  3.41006e+00  1.34446e+01 -2.06431e+01
       O  2.05691e+01 -1.43203e+01 -9.72557e-01
       H  2.13504e+01 -1.47578e+01 -1.32243e+00
       H  2.09067e+01 -1.40812e+01 -9.34926e-02
       O  4.46298e+00  7.38808e+00  1.03101e+01
       H  5.03821e+00  8.15161e+00  1.05621e+01
       H  5.11037e+00  6.70509e+00  1.05581e+01
       O -1.60821e+00  1.32641e+01  1.33841e+01
       H -9.37884e-01  1.32652e+01  1.40833e+01
       H -2.42738e+00  1.32117e+01  1.38456e+01
       O  1.37775e+01 -1.46140e+01  1.30873e+01
       H  1.30462e+01 -1.40531e+01  1.34178e+01
       H  1.34478e+01 -1.48891e+01  1.22450e+01
       O  2.11674e+01  1.29282e+01  4.81614e+00
       H  2.15031e+01  1.38403e+01  4.59792e+00
       H  2.18495e+01  1.24056e+01  5.28233e+00
       O -7.93746e+00 -1.84505e+01 -1.68218e+01
       H -8.40608e+00 -1.84838e+01 -1.59939e+01
       H -8.17562e+00 -1.76885e+01 -1.74074e+01
       O -1.37094e-01 -1.02553e+01 -2.11651e+01
       H -6.69495e-01 -9.71498e+00 -2.05589e+01
       H  6.73906e-01 -1.04160e+01 -2.06500e+01
       O  1.58699e+01  1.55794e+01 -1.84217e+01
       H  1.60767e+01  1.46968e+01 -1.88526e+01
       H  1.64813e+01  1.62153e+01 -1.87949e+01
       O -1.18853e+01 -1.50460e+01  1.59878e+01
       H -1.16579e+01 -1.49533e+01  1.69405e+01
       H -1.28661e+01 -1.53788e+01  1.59808e+01
       O  2.08601e+01 -2.03615e+01  1.75984e+01
       H  2.10108e+01 -2.01736e+01  1.66940e+01
       H  2.15976e+01 -1.98936e+01  1.79616e+01
       O  2.09256e+01  1.38809e+01 -1.88230e+01
       H  2.00487e+01  1.35554e+01 -1.85437e+01
       H  2.16162e+01  1.33850e+01 -1.83773e+01
       O -1.60483e+01 -8.01253e+00  1.62021e+01
       H -1.58637e+01 -7.17738e+00  1.57852e+01
       H -1.58987e+01 -7.85354e+00  1.71591e+01
       O -1.04822e+01 -3.41690e+00  7.13478e+00
       H -1.06441e+01 -2.63646e+00  6.62225e+00
       H -1.12845e+01 -3.37826e+00  7.66261e+00
       O  4.17763e+00  2.35175e+00 -2.61128e+00
       H  3.60467e+00  2.66195e+00 -3.30911e+00
       H  5.10395e+00  2.68775e+00 -2.70976e+00
       O -7.47128e+00  1.80617e+01 -6.67842e+00
       H -7.99647e+00  1.85866e+01 -6.02649e+00
       H -7.94326e+00  1.79500e+01 -7.54540e+00
       O  1.59894e+01  1.05897e+00  1.57789e+01
       H  1.60506e+01  2.03532e+00  1.58686e+01
       H  1.68444e+01  8.65858e-01  1.53898e+01
       O -8.52621e+00  1.09583e+01 -3.14283e+00
       H -8.01009e+00  1.01852e+01 -3.42140e+00
       H -8.90601e+00  1.06723e+01 -2.34484e+00
       O  2.02004e+01  1.89097e+01  1.53059e+01
       H  2.06995e+01  1.86363e+01  1.60785e+01
       H  2.06492e+01  1.97709e+01  1.50622e+01
       O  3.84807e+00 -1.42726e+01  1.04958e+01
       H  4.36002e+00 -1.39311e+01  9.74277e+00
       H  3.00409e+00 -1.43694e+01  1.00654e+01
       O -7.08602e+00  1.34631e+01 -2.72621e+00
       H -6.38885e+00  1.37797e+01 -3.27671e+00
       H -7.40020e+00  1.26637e+01 -3.14577e+00
       O -1.96131e+00  1.74246e+01 -1.04644e+01
       H -1.45272e+00  1.80156e+01 -9.89673e+00
       H -2.90028e+00  1.75120e+01 -1.03596e+01
       O -4.47266e+00  3.33883e+00  1.86308e+00
       H -3.80590e+00  2.90186e+00  2.33990e+00
       H -4.51313e+00  3.01646e+00  9.32039e-01
       O  1.52607e+01 -4.52727e+00  9.08682e+00
       H  1.59585e+01 -4.64740e+00  9.80332e+00
       H  1.51662e+01 -5.29271e+00  8.44229e+00
       O  2.21526e+01  1.23585e-01 -1.26876e+01
       H  2.16142e+01 -6.59686e-01 -1.25164e+01
       H  2.17814e+01  4.61776e-01 -1.35406e+01
       O  8.73417e+00 -3.57434e+00 -1.23225e+01
       H  8.05689e+00 -3.19279e+00 -1.17477e+01
       H  8.85633e+00 -2.80135e+00 -1.28831e+01
       O  3.63665e+00  1.92159e+01  1.23273e+01
       H  3.19909e+00  1.94878e+01  1.14748e+01
       H  4.25435e+00  1.99631e+01  1.25009e+01
       O -1.83010e+01 -7.57567e+00  4.38350e-01
       H -1.82834e+01 -7.24222e+00  1.42508e+00
       H -1.76339e+01 -8.23128e+00  4.59932e-01
       O -8.19510e+00 -1.95970e+01  1.09421e+01
       H -8.51025e+00 -2.00687e+01  1.17134e+01
       H -8.74316e+00 -1.87735e+01  1.10109e+01
       O  6.79628e+00  7.99948e+00  1.53195e+01
       H  7.07092e+00  7.49128e+00  1.60706e+01
       H  7.55901e+00  8.40467e+00  1.49405e+01
       O -1.30492e+01 -1.16286e+01  1.46368e+01
       H -1.30929e+01 -1.12686e+01  1.37436e+01
       H -1.28433e+01 -1.25903e+01  1.46088e+01
       O -1.61897e+01  8.27924e+00  2.29713e+01
       H -1.68930e+01  8.51431e+00  2.36396e+01
       H -1.63107e+01  7.32281e+00  2.29984e+01
       O  1.96427e+01 -1.70416e+01  5.52441e+00
       H  1.93015e+01 -1.61963e+01  5.91940e+00
       H  1.88877e+01 -1.74609e+01  5.11330e+00
       O  1.00766e+01 -1.85117e+01 -1.88756e+01
       H  9.19336e+00 -1.83502e+01 -1.91665e+01
       H  1.02953e+01 -1.76909e+01 -1.83940e+01
       O -1.61817e+01  1.67819e+01 -1.31449e+01
       H -1.59272e+01  1.58721e+01 -1.30109e+01
       H -1.64344e+01  1.71299e+01 -1.22791e+01
       O -8.48902e+00  2.06400e+00 -1.66267e+01
       H -9.05911e+00  1.59019e+00 -1.72711e+01
       H -8.73307e+00  1.71867e+00 -1.57714e+01
       O  1.05594e+01  7.85862e+00 -1.58278e-01
       H  1.09015e+01  8.16292e+00 -1.01892e+00
       H  1.07628e+01  8.58292e+00  4.30611e-01
       O -4.22436e+00 -8.33190e-01  9.49420e+00
       H -4.25487e+00 -1.65151e+00  1.00419e+01
       H -3.89525e+00 -1.22867e-01  1.00178e+01
       O -1.45220e+00 -1.03321e+01 -1.63187e+01
       H -7.44511e-01 -1.03314e+01 -1.56692e+01
       H -1.19895e+00 -1.10541e+01 -1.68703e+01
       O -2.18783e+01 -1.66361e+01  2.09188e+01
       H -2.12015e+01 -1.61542e+01  2.03880e+01
       H -2.17085e+01 -1.75212e+01  2.07356e+01