1824
# CELL(abcABC):   18.36755    18.36755    41.98298    90.00000    90.00000    90.00000  Step:      851850  Bead:       0 positions{angstrom}  cell{angstrom}
       C  6.74887e+00  3.85766e+00 -2.81766e+00
       H  5.88178e+00  4.40345e+00 -2.71414e+00
       H  6.75696e+00  3.33522e+00 -3.78462e+00
       H  7.64258e+00  4.47040e+00 -2.78698e+00
       H  6.80941e+00  3.16308e+00 -1.97337e+00
       C -1.51335e+01  4.57797e-01  1.42936e+00
       H -1.42207e+01  3.83236e-01  8.80200e-01
       H -1.49844e+01  1.01072e+00  2.36315e+00
       H -1.57967e+01  9.86641e-01  7.10176e-01
       H -1.54555e+01 -5.64372e-01  1.63665e+00
       C -2.89236e+00 -1.21177e+00 -6.61071e+00
       H -3.31824e+00 -1.19414e+00 -7.65085e+00
       H -2.99739e+00 -1.43076e-01 -6.31426e+00
       H -3.39995e+00 -1.96233e+00 -5.96312e+00
       H -1.84733e+00 -1.50488e+00 -6.57099e+00
       C -8.20916e+00  1.66638e+01  8.90934e+00
       H -9.15080e+00  1.61762e+01  9.18327e+00
       H -8.38038e+00  1.77355e+01  8.88970e+00
       H -7.32420e+00  1.65200e+01  9.59160e+00
       H -7.84454e+00  1.62894e+01  7.94303e+00
       C -9.54423e+00  1.18900e+00 -2.06366e+00
       H -1.01240e+01  1.07069e+00 -1.14898e+00
       H -9.09621e+00  2.21978e+00 -2.06155e+00
       H -8.71364e+00  4.94321e-01 -2.22711e+00
       H -1.02939e+01  1.12601e+00 -2.90290e+00
       C -2.97333e+00 -1.20095e+01 -1.09175e+00
       H -3.93075e+00 -1.23907e+01 -1.48135e+00
       H -3.02733e+00 -1.09368e+01 -1.12029e+00
       H -2.88726e+00 -1.23865e+01 -9.14132e-02
       H -2.17265e+00 -1.23469e+01 -1.77555e+00
       C -1.17213e+01  2.65781e+00  1.13638e+00
       H -1.06915e+01  2.60400e+00  1.42377e+00
       H -1.23685e+01  2.49240e+00  2.00955e+00
       H -1.20180e+01  3.64185e+00  8.14041e-01
       H -1.18129e+01  1.92813e+00  3.52250e-01
       C -4.87197e+00 -6.89267e+00  2.61006e+00
       H -4.92126e+00 -5.78808e+00  2.50683e+00
       H -4.46664e+00 -7.24524e+00  1.66936e+00
       H -4.30405e+00 -7.20132e+00  3.44904e+00
       H -5.93780e+00 -7.29024e+00  2.58115e+00
       C -7.16020e+00 -4.82762e+00 -4.04925e+00
       H -7.57492e+00 -5.32339e+00 -3.15570e+00
       H -6.20438e+00 -4.48251e+00 -3.79094e+00
       H -7.21895e+00 -5.43082e+00 -4.91281e+00
       H -7.85135e+00 -3.96284e+00 -4.12177e+00
       C -1.08772e+01  1.12235e+01  3.83247e+00
       H -1.05666e+01  1.19698e+01  4.55917e+00
       H -1.17872e+01  1.07874e+01  4.29281e+00
       H -1.12405e+01  1.17383e+01  2.98998e+00
       H -1.00594e+01  1.05590e+01  3.55538e+00
       C -1.13880e+01  6.00387e+00 -8.83623e+00
       H -1.19642e+01  5.60512e+00 -8.01437e+00
       H -1.15881e+01  7.04706e+00 -8.85144e+00
       H -1.04026e+01  5.89203e+00 -8.57429e+00
       H -1.16419e+01  5.56765e+00 -9.78365e+00
       C  8.27985e+00  1.35606e+00  4.21795e+00
       H  7.13904e+00  1.51038e+00  4.23592e+00
       H  8.52311e+00  3.15815e-01  3.92661e+00
       H  8.77437e+00  2.06419e+00  3.56710e+00
       H  8.73452e+00  1.56669e+00  5.23153e+00
       C -7.61472e+00 -2.33837e+00 -1.03595e+00
       H -8.28844e+00 -1.50026e+00 -1.26683e+00
       H -6.54569e+00 -2.08857e+00 -1.26479e+00
       H -7.84184e+00 -2.61820e+00 -2.34776e-02
       H -7.96512e+00 -3.23858e+00 -1.56701e+00
       C -1.66079e+01  9.05065e+00 -4.36812e+00
       H -1.64487e+01  8.85876e+00 -5.43665e+00
       H -1.75555e+01  8.67840e+00 -4.10116e+00
       H -1.58321e+01  8.57517e+00 -3.67845e+00
       H -1.65735e+01  1.01244e+01 -4.27382e+00
       C  3.40264e+00  1.47707e+00 -7.06404e+00
       H  4.49881e+00  1.40436e+00 -6.83369e+00
       H  3.14887e+00  5.00148e-01 -7.47335e+00
       H  2.79669e+00  1.49632e+00 -6.16054e+00
       H  3.22114e+00  2.22235e+00 -7.81423e+00
       C -1.45961e+01 -6.69655e+00  1.92454e+00
       H -1.53957e+01 -5.94274e+00  2.10320e+00
       H -1.36690e+01 -6.19716e+00  2.13042e+00
       H -1.48151e+01 -7.52093e+00  2.56484e+00
       H -1.45733e+01 -6.99098e+00  8.35306e-01
       C  9.94699e+00 -5.39426e+00  2.26101e+00
       H  1.09988e+01 -5.09239e+00  2.22414e+00
       H  9.36996e+00 -4.81326e+00  1.53893e+00
       H  9.83674e+00 -6.44242e+00  2.04196e+00
       H  9.44757e+00 -5.03818e+00  3.13426e+00
       C -4.77042e+00  8.54135e+00 -2.61608e+00
       H -3.97885e+00  9.23209e+00 -2.53099e+00
       H -4.35914e+00  7.75354e+00 -3.23838e+00
       H -4.90084e+00  8.24125e+00 -1.57859e+00
       H -5.62037e+00  8.94414e+00 -3.08671e+00
       C -1.17269e+01  7.06115e+00 -1.28281e+00
       H -1.27039e+01  6.61140e+00 -1.09208e+00
       H -1.18645e+01  8.14561e+00 -1.54464e+00
       H -1.11431e+01  7.11599e+00 -4.26298e-01
       H -1.11825e+01  6.56810e+00 -2.10982e+00
       C -1.16911e+01 -7.75663e+00 -2.80836e-01
       H -1.17046e+01 -7.36054e+00  7.19028e-01
       H -1.26068e+01 -7.71554e+00 -8.42762e-01
       H -1.09787e+01 -7.13917e+00 -8.79903e-01
       H -1.13539e+01 -8.84305e+00 -2.23681e-01
       C -8.98826e+00 -1.15130e+01 -3.82541e+00
       H -9.29578e+00 -1.11374e+01 -4.81620e+00
       H -9.39683e+00 -1.09498e+01 -3.01844e+00
       H -9.46480e+00 -1.25187e+01 -3.78815e+00
       H -7.94008e+00 -1.15846e+01 -3.70176e+00
       C  1.04705e+01 -8.21473e+00 -4.05284e+00
       H  9.47601e+00 -8.66364e+00 -4.03037e+00
       H  1.08981e+01 -8.43891e+00 -3.06961e+00
       H  1.09444e+01 -8.79450e+00 -4.84965e+00
       H  1.02754e+01 -7.24177e+00 -4.45759e+00
       C  1.05596e+01  8.92884e+00 -4.11110e-01
       H  1.07033e+01  9.66296e+00  4.11686e-01
       H  1.00287e+01  8.04141e+00 -1.35629e-02
       H  9.99765e+00  9.52641e+00 -1.15497e+00
       H  1.15363e+01  8.70727e+00 -8.42338e-01
       C  5.81456e+00 -8.53747e+00 -4.18207e+00
       H  6.11549e+00 -9.48868e+00 -3.73359e+00
       H  5.68747e+00 -7.72002e+00 -3.46084e+00
       H  6.61528e+00 -8.31797e+00 -4.84921e+00
       H  4.91222e+00 -8.90163e+00 -4.76618e+00
       C -2.34156e+00 -6.75910e+00 -8.49826e+00
       H -1.42345e+00 -7.34558e+00 -8.49120e+00
       H -2.43102e+00 -6.25124e+00 -7.53610e+00
       H -2.36853e+00 -6.10797e+00 -9.34143e+00
       H -3.10248e+00 -7.43551e+00 -8.58175e+00
       C  7.57743e+00 -8.12262e-01  1.33846e+00
       H  8.27811e+00  1.19401e-02  1.38903e+00
       H  7.46802e+00 -1.21425e+00  2.36716e+00
       H  6.64980e+00 -4.45869e-01  9.91207e-01
       H  7.95310e+00 -1.58041e+00  6.25180e-01
       C  8.30799e+00  1.00582e+01 -1.36124e+01
       H  8.51693e+00  9.19595e+00 -1.29875e+01
       H  7.19906e+00  1.01231e+01 -1.36079e+01
       H  8.72325e+00  1.09565e+01 -1.32106e+01
       H  8.72962e+00  9.86672e+00 -1.46127e+01
       C -9.17434e+00 -1.37479e+01  2.53659e+00
       H -8.27872e+00 -1.42975e+01  2.25642e+00
       H -9.27612e+00 -1.39208e+01  3.60095e+00
       H -8.95420e+00 -1.26724e+01  2.43357e+00
       H -1.00396e+01 -1.41153e+01  1.95364e+00
       C  3.70085e+00 -9.85541e+00 -6.84461e-01
       H  3.61457e+00 -1.09394e+01 -4.18956e-01
       H  4.64795e+00 -9.52638e+00 -3.02687e-01
       H  3.67316e+00 -9.71732e+00 -1.76704e+00
       H  2.87595e+00 -9.23986e+00 -2.21628e-01
       C -6.72816e+00 -6.22746e+00 -8.40711e-01
       H -7.68990e+00 -5.99685e+00 -4.49624e-01
       H -6.74373e+00 -6.86219e+00 -1.74000e+00
       H -6.19400e+00 -5.29413e+00 -1.04473e+00
       H -6.20292e+00 -6.81324e+00 -4.89537e-02
       C -5.04169e+00 -3.17389e+00  4.18219e+00
       H -5.74430e+00 -3.22994e+00  4.98900e+00
       H -5.47241e+00 -3.71058e+00  3.26928e+00
       H -4.77073e+00 -2.17654e+00  3.95377e+00
       H -4.15954e+00 -3.88507e+00  4.30837e+00
       C -7.92581e+00  1.69458e+00  4.56175e-01
       H -7.29412e+00  1.74898e+00  1.38505e+00
       H -7.46931e+00  1.02843e+00 -2.32769e-01
       H -8.88679e+00  1.29608e+00  5.56642e-01
       H -7.95894e+00  2.74793e+00  1.12301e-01
       C  1.02985e+01 -1.79747e+00  2.47830e+00
       H  1.05627e+01 -1.50663e+00  1.51393e+00
       H  1.01421e+01 -2.87499e+00  2.49977e+00
       H  1.11869e+01 -1.62727e+00  3.10370e+00
       H  9.47161e+00 -1.19181e+00  2.82781e+00
       C -4.80355e+00 -2.99673e+00  8.31782e-01
       H -4.80767e+00 -3.18716e+00 -2.29816e-01
       H -4.14940e+00 -3.62897e+00  1.37984e+00
       H -4.62322e+00 -1.99959e+00  1.02739e+00
       H -5.81005e+00 -3.19239e+00  1.14934e+00
       C  2.09679e+00  7.59061e+00  6.60755e+00
       H  2.59678e+00  6.77127e+00  7.07998e+00
       H  2.81231e+00  8.00306e+00  5.90877e+00
       H  1.18346e+00  7.14963e+00  6.09967e+00
       H  1.82400e+00  8.34192e+00  7.35681e+00
       C -2.24767e+01  1.60250e+01 -3.41038e+00
       H -2.30613e+01  1.53286e+01 -4.00761e+00
       H -2.14342e+01  1.61077e+01 -3.76744e+00
       H -2.29856e+01  1.70172e+01 -3.64937e+00
       H -2.25550e+01  1.57151e+01 -2.35418e+00
       C -3.90044e+00  3.35503e-01 -5.97291e-01
       H -3.27481e+00 -5.83082e-02  1.59539e-01
       H -4.86453e+00 -1.56730e-01 -4.98788e-01
       H -3.84326e+00  1.43169e+00 -4.51423e-01
       H -3.52507e+00  1.59309e-01 -1.58645e+00
       C  1.21249e+01 -5.14013e+00  6.64471e+00
       H  1.14498e+01 -5.84467e+00  7.09284e+00
       H  1.17212e+01 -4.64616e+00  5.84725e+00
       H  1.23911e+01 -4.35437e+00  7.29501e+00
       H  1.30128e+01 -5.72989e+00  6.23719e+00
       C -9.39605e+00 -8.77537e+00  6.49906e+00
       H -9.92125e+00 -9.29905e+00  7.25556e+00
       H -8.62569e+00 -9.37857e+00  6.14995e+00
       H -1.00706e+01 -8.61778e+00  5.71421e+00
       H -8.99541e+00 -7.88371e+00  6.92313e+00
       C -9.63427e+00 -1.01081e+01  2.18557e+00
       H -1.01327e+01 -9.93446e+00  3.13778e+00
       H -1.04392e+01 -1.04296e+01  1.41316e+00
       H -9.15657e+00 -9.22723e+00  1.94358e+00
       H -8.89111e+00 -1.08274e+01  2.19834e+00
       C -1.38519e+01 -1.39547e+00  7.48852e+00
       H -1.35802e+01 -1.01786e+00  6.52784e+00
       H -1.42274e+01 -5.33692e-01  8.06330e+00
       H -1.45549e+01 -2.16466e+00  7.34867e+00
       H -1.30631e+01 -1.83466e+00  8.16360e+00
       C -1.97804e+01 -8.60081e+00  3.15687e+00
       H -2.07998e+01 -8.54503e+00  3.58073e+00
       H -1.93186e+01 -9.58751e+00  3.41399e+00
       H -1.97556e+01 -8.46919e+00  2.09392e+00
       H -1.92569e+01 -7.71037e+00  3.58405e+00
       C -1.35918e+01 -5.23191e+00 -5.09269e+00
       H -1.30274e+01 -5.64848e+00 -4.25796e+00
       H -1.41189e+01 -6.04896e+00 -5.55478e+00
       H -1.42545e+01 -4.41679e+00 -4.81977e+00
       H -1.29594e+01 -4.79665e+00 -5.81976e+00
       C  3.69886e+00 -1.07279e+01 -6.72411e+00
       H  3.63203e+00 -9.72402e+00 -6.26592e+00
       H  4.08030e+00 -1.06556e+01 -7.68857e+00
       H  4.24330e+00 -1.14133e+01 -6.17007e+00
       H  2.69020e+00 -1.10637e+01 -6.81236e+00
       C  5.92251e-01  1.23255e+01 -2.48451e+00
       H  1.34021e+00  1.20901e+01 -1.75647e+00
       H -1.72011e-01  1.30338e+01 -2.10945e+00
       H  1.01891e+00  1.25315e+01 -3.44506e+00
       H  4.43130e-02  1.13589e+01 -2.50993e+00
       C -8.29113e+00  4.99204e+00 -1.09164e+00
       H -8.59925e+00  6.02807e+00 -9.59867e-01
       H -8.68926e+00  4.77064e+00 -2.07336e+00
       H -7.22443e+00  4.75225e+00 -1.10804e+00
       H -8.84874e+00  4.28244e+00 -3.79411e-01
       C -1.45047e+01 -5.65480e+00 -1.45619e+00
       H -1.41538e+01 -5.09971e+00 -5.85168e-01
       H -1.51890e+01 -6.46374e+00 -1.19725e+00
       H -1.50845e+01 -4.96138e+00 -2.07474e+00
       H -1.36137e+01 -5.96683e+00 -2.06406e+00
       C  3.58364e+00  5.83032e+00 -3.10118e+00
       H  3.99355e+00  5.56170e+00 -2.12238e+00
       H  4.24233e+00  6.59440e+00 -3.48876e+00
       H  3.53079e+00  4.92207e+00 -3.70703e+00
       H  2.64366e+00  6.21885e+00 -2.87603e+00
       C -5.76396e+00  5.86803e+00  9.89658e-01
       H -4.70654e+00  5.90396e+00  8.06867e-01
       H -5.94640e+00  6.21410e+00  2.00545e+00
       H -6.30674e+00  6.43075e+00  2.75801e-01
       H -6.10056e+00  4.83667e+00  9.92035e-01
       C  4.31719e+00  1.56207e+01  1.16467e+00
       H  4.86974e+00  1.63720e+01  1.68269e+00
       H  4.12543e+00  1.58731e+01  1.60696e-01
       H  4.97548e+00  1.47671e+01  1.27012e+00
       H  3.35273e+00  1.54739e+01  1.66592e+00
       C -3.81116e+00 -5.81621e+00 -2.99011e+00
       H -4.44808e+00 -5.59412e+00 -3.84518e+00
       H -4.27668e+00 -6.51297e+00 -2.31743e+00
       H -2.88798e+00 -6.20394e+00 -3.37710e+00
       H -3.57954e+00 -4.85395e+00 -2.51372e+00
       C -1.08329e+00 -1.35407e+01  1.84437e+00
       H -4.92048e-01 -1.29749e+01  1.15628e+00
       H -2.05325e+00 -1.38545e+01  1.33026e+00
       H -3.89614e-01 -1.44071e+01  2.14368e+00
       H -1.18600e+00 -1.29602e+01  2.69574e+00
       C -5.03866e+00 -1.06897e+01 -8.86366e+00
       H -4.39292e+00 -1.15290e+01 -8.90192e+00
       H -5.66084e+00 -1.07578e+01 -9.72903e+00
       H -5.68160e+00 -1.08014e+01 -8.00151e+00
       H -4.54136e+00 -9.74809e+00 -8.78342e+00
       C -1.68045e+01  1.32451e+01 -5.61546e+00
       H -1.63075e+01  1.23393e+01 -5.49063e+00
       H -1.63517e+01  1.38276e+01 -6.37000e+00
       H -1.77860e+01  1.29888e+01 -5.96254e+00
       H -1.67260e+01  1.39278e+01 -4.70575e+00
       C -5.75576e-01 -2.50259e+00  5.12482e+00
       H -1.66601e+00 -2.48196e+00  5.09983e+00
       H -1.42001e-01 -3.14258e+00  4.36393e+00
       H -1.52474e-01 -1.49434e+00  5.08251e+00
       H -2.69306e-01 -2.98979e+00  6.07381e+00
       C  1.40502e+00 -1.00333e+00 -5.37305e+00
       H  1.70115e+00 -2.02454e-01 -6.00008e+00
       H  2.05098e+00 -1.84163e+00 -5.36538e+00
       H  1.37611e+00 -5.88878e-01 -4.36682e+00
       H  3.51585e-01 -1.24489e+00 -5.64361e+00
       C  8.16328e+00  1.33233e+01 -2.55174e+00
       H  7.11935e+00  1.36666e+01 -2.57417e+00
       H  8.33938e+00  1.26183e+01 -3.33758e+00
       H  8.86416e+00  1.40903e+01 -2.63175e+00
       H  8.41969e+00  1.28598e+01 -1.62142e+00
       O  3.05647e+01 -1.07399e+00  1.95275e+01
       H  3.01895e+01 -5.44477e-01  2.02288e+01
       H  2.99428e+01 -1.72892e+00  1.91260e+01
       O  4.79788e+00  1.16597e-01 -4.86130e+00
       H  4.60102e+00  1.04682e+00 -4.62624e+00
       H  4.61045e+00 -4.85347e-01 -4.08563e+00
       O  9.92426e+00  3.80123e+00 -1.41331e+01
       H  1.08232e+01  4.06800e+00 -1.44696e+01
       H  1.01184e+01  3.06999e+00 -1.35895e+01
       O  2.47834e+01  8.43795e+00  1.41622e+01
       H  2.50025e+01  7.98471e+00  1.33106e+01
       H  2.52555e+01  7.89819e+00  1.47775e+01
       O -1.49721e+01  5.13947e+00  9.04965e+00
       H -1.57237e+01  5.71627e+00  9.36715e+00
       H -1.43702e+01  5.03852e+00  9.78079e+00
       O -1.51855e+00  4.04077e-01 -1.78568e+01
       H -9.29908e-01 -3.37478e-01 -1.80060e+01
       H -1.34452e+00  8.21212e-01 -1.87165e+01
       O  6.15895e+00  5.98187e+00  1.81998e+00
       H  5.78655e+00  6.71735e+00  2.36582e+00
       H  6.54406e+00  5.54956e+00  2.58180e+00
       O -1.23684e+01 -3.87803e+00  6.68217e+00
       H -1.18504e+01 -3.12839e+00  6.66827e+00
       H -1.17243e+01 -4.58675e+00  6.67070e+00
       O -2.96858e+00  6.86042e+00  2.71095e+00
       H -3.52744e+00  7.09393e+00  1.98206e+00
       H -3.57393e+00  6.17750e+00  3.07918e+00
       O -6.07162e-01  2.29433e-01 -1.10193e+01
       H -7.36624e-01 -7.40804e-01 -1.09561e+01
       H -1.03298e+00  5.73143e-01 -1.02398e+01
       O -1.26825e+01 -1.87608e+01 -8.65766e+00
       H -1.32980e+01 -1.95095e+01 -8.56569e+00
       H -1.26955e+01 -1.86230e+01 -9.61143e+00
       O  1.75587e+01  9.77325e+00  2.36434e+01
       H  1.74724e+01  9.02917e+00  2.41828e+01
       H  1.75016e+01  9.33061e+00  2.27602e+01
       O -1.70440e+00  8.32457e+00 -3.09371e+01
       H -2.43454e+00  8.56279e+00 -3.04070e+01
       H -1.07245e+00  7.86854e+00 -3.03639e+01
       O  4.02639e+00  7.34678e+00 -1.06063e+01
       H  3.95732e+00  6.71597e+00 -9.84931e+00
       H  4.86396e+00  7.20593e+00 -1.10441e+01
       O -1.29398e+01  5.71026e+00  7.29927e+00
       H -1.37238e+01  5.52068e+00  7.74626e+00
       H -1.25590e+01  6.37821e+00  7.91149e+00
       O  1.26249e+01 -3.24647e+00 -2.02411e+01
       H  1.29617e+01 -2.93701e+00 -2.11354e+01
       H  1.34155e+01 -3.14694e+00 -1.96898e+01
       O -5.39246e+00 -6.70719e+00  1.40151e+01
       H -5.83551e+00 -7.12409e+00  1.32328e+01
       H -5.17591e+00 -7.24444e+00  1.48094e+01
       O -1.55186e+01  3.58270e+00  2.78667e+00
       H -1.59018e+01  4.44713e+00  3.02106e+00
       H -1.47838e+01  3.90286e+00  2.21778e+00
       O  1.97290e+01  1.03478e+01 -2.18474e+01
       H  1.88829e+01  1.06505e+01 -2.21417e+01
       H  2.02337e+01  1.11017e+01 -2.15523e+01
       O  2.22279e+00  2.83906e+00  1.83557e+01
       H  2.96071e+00  3.35910e+00  1.79462e+01
       H  1.73261e+00  3.43242e+00  1.89138e+01
       O  7.49428e+00 -6.37802e+00 -1.58304e+01
       H  7.66640e+00 -5.73829e+00 -1.65389e+01
       H  6.80446e+00 -5.95493e+00 -1.52774e+01
       O  1.27025e+01  7.02324e+00  6.50081e+00
       H  1.28308e+01  6.06375e+00  6.80470e+00
       H  1.22918e+01  7.00582e+00  5.66301e+00
       O  6.90698e+00  5.15268e+00 -1.47821e+01
       H  7.07477e+00  5.90761e+00 -1.41867e+01
       H  7.72895e+00  4.63183e+00 -1.47194e+01
       O  3.41098e+00  7.38966e+00  1.23793e+01
       H  2.98180e+00  8.02674e+00  1.17392e+01
       H  4.26754e+00  7.26681e+00  1.19509e+01
       O  6.28476e+00 -1.03090e+01  1.84643e+01
       H  6.22618e+00 -9.95584e+00  1.93572e+01
       H  6.27954e+00 -9.66202e+00  1.77990e+01
       O  2.13066e-01 -3.16469e+00  1.46427e+01
       H  2.62351e-01 -2.75801e+00  1.55722e+01
       H  1.10868e+00 -3.17213e+00  1.42837e+01
       O -3.14935e+00 -1.33967e+01 -4.36047e+00
       H -4.10632e+00 -1.35504e+01 -4.19714e+00
       H -2.65343e+00 -1.41267e+01 -3.96041e+00
       O  1.47103e+01  1.22951e+01  1.61512e+01
       H  1.51878e+01  1.15275e+01  1.65543e+01
       H  1.51051e+01  1.30294e+01  1.66406e+01
       O  1.62920e+01 -2.36543e+00 -2.81598e+01
       H  1.65300e+01 -1.47254e+00 -2.84684e+01
       H  1.70892e+01 -2.86510e+00 -2.80364e+01
       O -9.21360e+00 -1.52204e+01 -8.88922e+00
       H -9.07982e+00 -1.61993e+01 -9.07767e+00
       H -8.38926e+00 -1.47085e+01 -9.01093e+00
       O -2.28697e+00 -4.05662e+00 -2.48459e+01
       H -2.95066e+00 -3.32045e+00 -2.49240e+01
       H -1.90253e+00 -3.92409e+00 -2.39640e+01
       O -4.24247e+00 -1.64800e+00 -1.00421e+01
       H -4.25085e+00 -2.52634e+00 -9.67403e+00
       H -4.68859e+00 -1.68219e+00 -1.09020e+01
       O -2.99015e+00 -5.42983e+00  2.19667e+01
       H -2.60331e+00 -4.51143e+00  2.20641e+01
       H -2.79918e+00 -5.91883e+00  2.27561e+01
       O -1.68586e+00  4.68269e+00 -1.24696e+01
       H -1.04432e+00  5.05564e+00 -1.30613e+01
       H -2.50987e+00  5.12988e+00 -1.26112e+01
       O -1.03587e+01  9.56065e-01  7.31894e+00
       H -9.55681e+00  1.34548e+00  6.93178e+00
       H -1.10417e+01  1.58650e+00  7.29359e+00
       O -9.17501e+00  7.75332e+00  1.30810e+01
       H -9.72562e+00  8.04138e+00  1.23123e+01
       H -8.33167e+00  7.46761e+00  1.27513e+01
       O -3.36601e+00  2.55854e+00 -6.46401e+00
       H -2.70899e+00  3.31231e+00 -6.48172e+00
       H -3.19294e+00  2.10016e+00 -7.28053e+00
       O  1.78149e+01 -7.42337e+00  1.01669e+01
       H  1.82632e+01 -7.97358e+00  9.59670e+00
       H  1.73171e+01 -8.05742e+00  1.07360e+01
       O  2.35167e+00  1.14787e+01 -1.12286e+01
       H  2.54532e+00  1.09869e+01 -1.20167e+01
       H  2.81284e+00  1.23365e+01 -1.13323e+01
       O  1.33716e+01  3.43587e+00  1.29585e+01
       H  1.25378e+01  3.69924e+00  1.26588e+01
       H  1.38735e+01  4.22731e+00  1.31077e+01
       O  2.31406e+00  2.09947e+01  2.40284e+01
       H  2.65240e+00  2.08313e+01  2.31363e+01
       H  2.20630e+00  2.00831e+01  2.43355e+01
       O  1.29289e+00  7.52626e+00  1.47965e+01
       H  2.18168e+00  7.44716e+00  1.50856e+01
       H  7.24270e-01  7.96300e+00  1.54268e+01
       O  1.55633e+01  1.50760e+00  2.15814e+01
       H  1.53359e+01  1.85311e+00  2.23795e+01
       H  1.63963e+01  2.05630e+00  2.14170e+01
       O -1.47858e+01  4.85707e+00 -9.25503e+00
       H -1.40260e+01  4.45625e+00 -8.81137e+00
       H -1.50649e+01  4.30559e+00 -9.95997e+00
       O  6.30939e-01 -8.03909e+00 -7.54403e+00
       H  4.02730e-01 -8.70026e+00 -8.29345e+00
       H  1.57111e+00 -7.94134e+00 -7.37233e+00
       O  1.87625e+01  1.24970e+01  2.55008e+01
       H  1.85373e+01  1.25635e+01  2.64790e+01
       H  1.79877e+01  1.22740e+01  2.50053e+01
       O -2.05888e+00 -1.31117e+01 -9.65977e+00
       H -2.63938e+00 -1.29101e+01 -8.86572e+00
       H -2.45417e+00 -1.25164e+01 -1.02685e+01
       O  4.70505e+00  3.38647e+00  1.34552e+01
       H  4.32835e+00  2.53728e+00  1.37772e+01
       H  5.40119e+00  3.58432e+00  1.40812e+01
       O  9.21788e+00  2.67254e+00  1.62564e+01
       H  8.65233e+00  2.13093e+00  1.56934e+01
       H  1.00950e+01  2.43459e+00  1.58900e+01
       O -3.55685e+00 -1.10287e+01 -1.83593e+01
       H -4.12080e+00 -1.02737e+01 -1.86741e+01
       H -3.29984e+00 -1.06661e+01 -1.75155e+01
       O  1.52352e+00 -7.86105e+00  5.05352e+00
       H  1.61912e+00 -8.36777e+00  4.18872e+00
       H  2.48887e+00 -7.71314e+00  5.23469e+00
       O -7.55162e+00 -1.01324e+01  9.55597e+00
       H -8.01081e+00 -9.32157e+00  9.84297e+00
       H -6.57897e+00 -1.00744e+01  9.46719e+00
       O -4.97818e+00 -1.71252e+00  7.22511e+00
       H -5.36036e+00 -2.05025e+00  8.04621e+00
       H -4.19721e+00 -2.27138e+00  7.21875e+00
       O -4.53770e+00 -4.01388e+00 -8.82361e+00
       H -4.17529e+00 -4.16588e+00 -7.89027e+00
       H -4.03812e+00 -4.47513e+00 -9.47732e+00
       O -2.42424e+01  6.13137e+00  1.47233e+01
       H -2.34846e+01  5.59949e+00  1.49658e+01
       H -2.50323e+01  5.67307e+00  1.51159e+01
       O -8.69970e+00 -6.02446e+00 -1.14110e+01
       H -8.03496e+00 -5.41080e+00 -1.18054e+01
       H -8.29800e+00 -6.94083e+00 -1.13941e+01
       O -4.28616e+00 -4.47710e+00 -6.33549e+00
       H -4.67315e+00 -5.39223e+00 -6.45629e+00
       H -3.43540e+00 -4.63631e+00 -5.89343e+00
       O  1.43676e+01  1.36946e+01  1.33253e+01
       H  1.41553e+01  1.29010e+01  1.38399e+01
       H  1.49673e+01  1.41487e+01  1.39426e+01
       O -7.29712e+00  3.29376e+00 -4.98671e+00
       H -7.85616e+00  4.05616e+00 -5.08112e+00
       H -6.96135e+00  2.97894e+00 -5.83095e+00
       O  2.02401e+00  9.42068e+00 -2.44839e+01
       H  2.10907e+00  9.80345e+00 -2.35745e+01
       H  1.72132e+00  8.50251e+00 -2.43853e+01
       O  1.86033e-01  5.75605e+00 -4.78795e+00
       H  9.62328e-01  5.77637e+00 -5.41785e+00
       H  3.73015e-01  5.05781e+00 -4.20390e+00
       O -7.13685e+00  6.81893e+00 -2.40754e+01
       H -7.34651e+00  7.11335e+00 -2.50012e+01
       H -7.95049e+00  6.96266e+00 -2.36270e+01
       O -5.27519e+00  1.38861e+01  1.88280e+01
       H -4.75390e+00  1.30918e+01  1.89765e+01
       H -6.15945e+00  1.37600e+01  1.92696e+01
       O  1.77521e+01 -1.04010e+01 -1.25628e+01
       H  1.87262e+01 -1.04232e+01 -1.26676e+01
       H  1.75391e+01 -9.44996e+00 -1.27439e+01
       O  1.17900e+01 -1.17508e+00 -1.76345e+01
       H  1.23052e+01 -1.81401e+00 -1.72033e+01
       H  1.24083e+01 -6.84648e-01 -1.81460e+01
       O  1.10809e+01  1.10467e+01  4.52274e+00
       H  1.18582e+01  1.15704e+01  4.30111e+00
       H  1.11689e+01  1.07498e+01  5.45653e+00
       O  3.46483e+00 -7.51454e+00 -7.15825e+00
       H  3.64447e+00 -8.09681e+00 -7.90559e+00
       H  3.25398e+00 -6.60945e+00 -7.49301e+00
       O  1.85332e+01 -1.32512e+01  1.67961e+01
       H  1.90058e+01 -1.33739e+01  1.59961e+01
       H  1.78090e+01 -1.38689e+01  1.67626e+01
       O  8.20466e+00  9.10833e+00 -1.77594e+01
       H  8.60480e+00  9.61394e+00 -1.70176e+01
       H  7.53110e+00  8.61387e+00 -1.72584e+01
       O  9.99202e+00 -6.66219e+00 -1.85635e+01
       H  1.05982e+01 -5.87801e+00 -1.85430e+01
       H  1.01539e+01 -7.08870e+00 -1.94358e+01
       O  1.63587e+00  4.19491e+00  1.46876e+01
       H  1.68164e+00  4.42472e+00  1.37639e+01
       H  1.52217e+00  3.21571e+00  1.46004e+01
       O  1.40709e+01 -1.95046e-01 -2.93757e+01
       H  1.43431e+01  1.48757e-01 -2.84945e+01
       H  1.48841e+01 -4.37085e-01 -2.98769e+01
       O  1.38953e+01 -5.59094e-01 -1.98379e+01
       H  1.32961e+01 -1.00009e+00 -2.04689e+01
       H  1.44288e+01 -8.88508e-02 -2.04699e+01
       O  3.47369e+00  3.41774e+00 -2.04140e+01
       H  4.37146e+00  3.80488e+00 -2.02252e+01
       H  3.56190e+00  2.88628e+00 -2.12468e+01
       O  4.76537e+00  6.37435e-01  2.50846e+01
       H  5.06284e+00  1.50701e+00  2.54058e+01
       H  3.78257e+00  7.04012e-01  2.48737e+01
       O -9.33961e+00 -5.22443e+00 -2.47737e+01
       H -8.92900e+00 -4.97289e+00 -2.39339e+01
       H -8.70889e+00 -5.06831e+00 -2.54818e+01
       O  8.97930e-01 -8.64155e+00  4.26040e-01
       H  1.15785e+00 -8.67677e+00 -5.12148e-01
       H  8.18515e-01 -7.70590e+00  6.70715e-01
       O -8.63844e+00  3.49500e+00 -1.78713e+01
       H -9.28147e+00  2.72946e+00 -1.80573e+01
       H -9.14016e+00  4.35940e+00 -1.78723e+01
       O -3.46600e+00 -1.24844e+01  8.38014e+00
       H -3.08740e+00 -1.19058e+01  7.63323e+00
       H -2.68011e+00 -1.25577e+01  8.95786e+00
       O -9.06041e+00  1.40081e+01  7.62719e+00
       H -8.37324e+00  1.37223e+01  8.21589e+00
       H -9.53863e+00  1.31778e+01  7.41135e+00
       O  5.59646e+00 -6.13798e+00 -1.35603e+01
       H  5.45847e+00 -7.04082e+00 -1.31768e+01
       H  4.67198e+00 -5.89424e+00 -1.37993e+01
       O  8.01476e+00  4.53641e+00  9.13315e+00
       H  7.06215e+00  4.59097e+00  9.35459e+00
       H  8.38514e+00  3.68649e+00  9.40576e+00
       O  3.13500e-01  2.52310e-01 -1.47718e+01
       H  8.32370e-01 -1.04245e-01 -1.40523e+01
       H  4.70811e-02  1.15867e+00 -1.44881e+01
       O  3.04070e+00  9.97175e+00 -1.39012e+01
       H  2.29878e+00  1.00476e+01 -1.45368e+01
       H  3.89575e+00  1.02830e+01 -1.42126e+01
       O  5.55833e+00  2.71168e+00 -1.40562e+01
       H  4.98517e+00  1.90551e+00 -1.38722e+01
       H  5.39081e+00  3.39355e+00 -1.33479e+01
       O  5.24423e+00 -8.71056e+00  1.07128e+01
       H  4.40649e+00 -8.95243e+00  1.02823e+01
       H  5.07540e+00 -8.30938e+00  1.15565e+01
       O  9.41058e+00  1.17424e+01  9.34875e+00
       H  1.03333e+01  1.13979e+01  9.24191e+00
       H  8.92650e+00  1.09827e+01  9.72816e+00
       O -1.80928e+01  1.24394e+01  2.18403e+01
       H -1.88683e+01  1.27031e+01  2.13712e+01
       H -1.75282e+01  1.32548e+01  2.19271e+01
       O  9.30457e+00  2.37874e+00  1.01433e+01
       H  8.82086e+00  2.07558e+00  1.09120e+01
       H  9.41882e+00  1.58022e+00  9.67770e+00
       O  4.01648e+00 -7.40948e+00  5.07292e+00
       H  4.41694e+00 -6.67503e+00  4.54662e+00
       H  4.46248e+00 -7.33553e+00  5.89866e+00
       O  2.45020e+00 -4.25046e+00 -2.03953e+01
       H  2.33325e+00 -3.39019e+00 -2.08015e+01
       H  2.59783e+00 -4.88175e+00 -2.11332e+01
       O -5.37321e+00  4.76378e+00 -2.33999e+01
       H -6.02613e+00  5.33930e+00 -2.37509e+01
       H -5.85602e+00  4.24506e+00 -2.27237e+01
       O  1.79324e+00 -1.24294e+01  4.08288e-01
       H  2.73615e+00 -1.26400e+01  4.40625e-01
       H  1.52750e+00 -1.21843e+01 -5.43373e-01
       O  4.55459e+00  1.03304e+01  1.93688e+01
       H  5.51404e+00  1.04820e+01  1.94589e+01
       H  4.42783e+00  1.00382e+01  1.84431e+01
       O -1.86900e+00 -3.85288e+00 -1.72023e+01
       H -1.31237e+00 -3.60192e+00 -1.64148e+01
       H -1.71811e+00 -4.80221e+00 -1.73439e+01
       O -5.03727e+00  4.90075e+00  2.39616e+01
       H -4.46748e+00  5.72940e+00  2.39515e+01
       H -5.49964e+00  5.01884e+00  2.48022e+01
       O  2.27714e+00 -5.35185e-01  1.72312e+01
       H  1.68114e+00 -1.30664e+00  1.71392e+01
       H  3.05601e+00 -8.42679e-01  1.67710e+01
       O -4.80858e+00  2.61805e+00  1.94115e+00
       H -4.58382e+00  3.30095e+00  2.64032e+00
       H -5.26932e+00  1.91227e+00  2.41878e+00
       O -1.14093e+01 -4.13320e+00  5.32738e-01
       H -1.17098e+01 -4.90892e+00  1.21172e-03
       H -1.13424e+01 -3.45051e+00 -2.04881e-01
       O -9.51155e+00  5.53344e+00 -1.18547e+01
       H -9.90799e+00  4.78031e+00 -1.14116e+01
       H -8.97812e+00  5.15312e+00 -1.25995e+01
       O -1.28410e+01 -1.57019e+01  7.03065e+00
       H -1.36232e+01 -1.60088e+01  7.55773e+00
       H -1.27611e+01 -1.47796e+01  7.22856e+00
       O -9.25216e+00 -1.14559e+01  7.84174e+00
       H -8.91229e+00 -1.22967e+01  8.14626e+00
       H -8.50715e+00 -1.09041e+01  8.14646e+00
       O -1.60283e+00 -4.76470e+00 -5.45659e+00
       H -1.48304e+00 -4.21921e+00 -4.69595e+00
       H -1.68719e+00 -5.63545e+00 -5.01138e+00
       O -7.76361e+00  6.73325e+00  4.55548e+00
       H -7.61065e+00  5.78994e+00  4.68715e+00
       H -8.76891e+00  6.78913e+00  4.58076e+00
       O -7.39130e+00 -9.24898e-01 -3.69130e+00
       H -7.64334e+00 -3.30685e-01 -4.40539e+00
       H -8.23650e+00 -1.39881e+00 -3.40173e+00
       O  5.66547e+00 -1.97827e+01  1.53109e+01
       H  5.84653e+00 -2.06490e+01  1.56709e+01
       H  6.40569e+00 -1.97325e+01  1.46713e+01
       O  2.42242e+00  4.76582e+00 -1.19848e+01
       H  1.92491e+00  3.94512e+00 -1.21648e+01
       H  1.93199e+00  5.39434e+00 -1.25446e+01
       O  1.05674e+01  5.71042e-01  2.86424e+01
       H  1.02564e+01  1.18952e+00  2.92902e+01
       H  1.04794e+01  9.31398e-01  2.77910e+01
       O -4.30933e+00  3.41398e+00  1.02505e+01
       H -4.39999e+00  3.37534e+00  1.12142e+01
       H -3.41607e+00  3.73782e+00  1.00327e+01
       O  7.07785e+00 -8.09299e-01  1.29954e+01
       H  7.94800e+00 -4.92333e-01  1.27146e+01
       H  6.49415e+00 -1.20133e-01  1.26997e+01
       O  2.45883e+00  2.14227e-01 -1.93350e+00
       H  2.05085e+00  9.27521e-01 -2.40581e+00
       H  1.75088e+00 -1.60757e-01 -1.40799e+00
       O -6.47045e+00  1.01705e+01 -1.39747e+01
       H -5.62139e+00  9.65876e+00 -1.38805e+01
       H -6.97794e+00  1.00558e+01 -1.47993e+01