LAMMPS data file via write_data, version 29 Sep 2021, timestep = 6500

6144 atoms
2 atom types
4096 bonds
1 bond types
2048 angles
1 angle types

0 39.461426 xlo xhi
0 39.461426 ylo yhi
0 39.461426 zlo zhi

Masses

1 15.9994
2 1.008

Atoms # full

1 1 1 -1.1128 29.56636 0.00648 6.97557 0 0 0
2 1 2 0.5564 29.95047 0.88791 7.00812 0 0 0
3 1 2 0.5564 29.70378 39.06619 7.85246 0 0 0
4 2 1 -1.1128 34.6973 1.86861 22.80911 0 0 0
5 2 2 0.5564 34.69298 2.76888 22.44554 0 0 0
6 2 2 0.5564 34.04125 1.81567 23.52934 0 0 0
7 3 1 -1.1128 0.95023 24.40811 7.45069 0 0 0
8 3 2 0.5564 1.36113 23.58991 7.64076 0 0 0
9 3 2 0.5564 0.96063 24.53209 6.44271 0 0 0
10 4 1 -1.1128 5.23822 24.01857 28.65218 0 0 0
11 4 2 0.5564 4.82185 24.86938 28.71731 0 0 0
12 4 2 0.5564 5.52979 23.97431 27.70218 0 0 0
13 5 1 -1.1128 9.87266 34.95015 32.87645 0 0 0
14 5 2 0.5564 9.30399 34.37989 32.29684 0 0 0
15 5 2 0.5564 10.50328 35.27645 32.27916 0 0 0
16 6 1 -1.1128 20.0441 35.27219 30.74492 0 0 0
17 6 2 0.5564 19.56629 36.06478 31.06785 0 0 0
18 6 2 0.5564 20.85568 35.62162 30.43102 0 0 0
19 7 1 -1.1128 26.04369 21.76783 37.28553 0 0 0
20 7 2 0.5564 25.6307 21.50112 38.13422 0 0 0
21 7 2 0.5564 25.91649 20.92665 36.86355 0 0 0
22 8 1 -1.1128 3.71911 15.91649 21.52013 0 0 0
23 8 2 0.5564 2.96677 16.42301 21.0989 0 0 0
24 8 2 0.5564 4.45629 15.86187 20.90906 0 0 0
25 9 1 -1.1128 34.64621 2.04682 4.544 0 0 0
26 9 2 0.5564 33.73967 2.11367 4.22517 0 0 0
27 9 2 0.5564 34.75859 2.25129 5.50146 0 0 0
28 10 1 -1.1128 1.10454 5.05582 19.1645 0 0 0
29 10 2 0.5564 0.81069 4.1973 19.52435 0 0 0
30 10 2 0.5564 2.08578 5.02002 19.00306 0 0 0
31 11 1 -1.1128 9.42587 16.36886 31.72585 0 0 0
32 11 2 0.5564 10.14366 15.79547 31.365 0 0 0
33 11 2 0.5564 9.23443 17.07438 31.08984 0 0 0
34 12 1 -1.1128 0.84629 29.2698 20.71859 0 0 0
35 12 2 0.5564 1.70764 29.37552 20.37141 0 0 0
36 12 2 0.5564 0.99363 28.50758 21.32875 0 0 0
37 13 1 -1.1128 26.99542 0.88647 0.70042 0 0 0
38 13 2 0.5564 27.72833 1.35426 0.18677 0 0 0
39 13 2 0.5564 26.92684 1.41928 1.52012 0 0 0
40 14 1 -1.1128 13.49336 7.15132 23.18373 0 0 0
41 14 2 0.5564 13.73639 8.02226 22.85152 0 0 0
42 14 2 0.5564 14.34163 6.75605 23.40494 0 0 0
43 15 1 -1.1128 24.56252 21.26032 4.08139 0 0 0
44 15 2 0.5564 23.59688 21.33874 3.82516 0 0 0
45 15 2 0.5564 24.70269 21.82535 4.86412 0 0 0
46 16 1 -1.1128 11.8037 28.78984 8.10812 0 0 0
47 16 2 0.5564 12.12539 29.48358 8.72557 0 0 0
48 16 2 0.5564 11.75462 28.0189 8.68625 0 0 0
49 17 1 -1.1128 25.66403 30.1434 6.75553 0 0 0
50 17 2 0.5564 25.23813 29.39997 6.30666 0 0 0
51 17 2 0.5564 25.06235 30.30513 7.49861 0 0 0
52 18 1 -1.1128 0.63009 25.85779 27.52609 0 0 0
53 18 2 0.5564 1.36413 25.29069 27.32222 0 0 0
54 18 2 0.5564 0.59359 25.78693 28.503 0 0 0
55 19 1 -1.1128 11.89443 16.15586 35.59727 0 0 0
56 19 2 0.5564 12.02486 16.7577 36.3549 0 0 0
57 19 2 0.5564 11.28019 16.68077 34.98559 0 0 0
58 20 1 -1.1128 7.76641 11.01919 17.29233 0 0 0
59 20 2 0.5564 7.57972 10.50284 16.49879 0 0 0
60 20 2 0.5564 7.31895 11.86955 17.12933 0 0 0
61 21 1 -1.1128 24.9081 31.97776 11.28943 0 0 0
62 21 2 0.5564 24.66793 32.86668 11.57991 0 0 0
63 21 2 0.5564 25.8578 31.85784 11.57084 0 0 0
64 22 1 -1.1128 35.25283 31.5581 24.93037 0 0 0
65 22 2 0.5564 34.96142 32.17637 24.2709 0 0 0
66 22 2 0.5564 36.18935 31.80615 25.05562 0 0 0
67 23 1 -1.1128 24.92409 5.36014 1.52171 0 0 0
68 23 2 0.5564 24.17655 4.88876 1.13386 0 0 0
69 23 2 0.5564 25.50353 4.65592 1.91202 0 0 0
70 24 1 -1.1128 22.72275 15.77847 18.55805 0 0 0
71 24 2 0.5564 22.31591 15.22424 19.27567 0 0 0
72 24 2 0.5564 23.39628 15.1698 18.23598 0 0 0
73 25 1 -1.1128 2.98404 38.93872 3.76884 0 0 0
74 25 2 0.5564 3.80012 39.30279 4.18356 0 0 0
75 25 2 0.5564 2.38291 0.21678 3.79582 0 -1 0
76 26 1 -1.1128 2.84224 36.40401 26.36062 0 0 0
77 26 2 0.5564 2.21569 36.24552 25.64014 0 0 0
78 26 2 0.5564 3.37916 35.56599 26.45452 0 0 0
79 27 1 -1.1128 11.05723 19.99273 32.57925 0 0 0
80 27 2 0.5564 11.01035 19.27836 33.23285 0 0 0
81 27 2 0.5564 10.87754 20.89688 33.09463 0 0 0
82 28 1 -1.1128 34.61634 29.13205 20.22185 0 0 0
83 28 2 0.5564 33.76944 29.27918 19.8114 0 0 0
84 28 2 0.5564 34.99087 28.45063 19.60747 0 0 0
85 29 1 -1.1128 24.57168 25.84161 37.26343 0 0 0
86 29 2 0.5564 24.75612 25.10927 36.64194 0 0 0
87 29 2 0.5564 24.1888 26.65203 36.84538 0 0 0
88 30 1 -1.1128 28.02121 2.53769 15.59692 0 0 0
89 30 2 0.5564 27.38854 1.80922 15.69744 0 0 0
90 30 2 0.5564 27.6854 3.29176 16.10126 0 0 0
91 31 1 -1.1128 24.12504 23.30974 36.10289 0 0 0
92 31 2 0.5564 24.11469 22.90611 35.21751 0 0 0
93 31 2 0.5564 24.61586 22.72724 36.63535 0 0 0
94 32 1 -1.1128 19.18067 20.7229 28.43616 0 0 0
95 32 2 0.5564 19.05517 20.85676 27.47221 0 0 0
96 32 2 0.5564 20.14452 20.52879 28.5995 0 0 0
97 33 1 -1.1128 0.39617 37.68829 6.20149 0 0 0
98 33 2 0.5564 0.11433 38.50833 5.85289 0 0 0
99 33 2 0.5564 0.82506 37.23176 5.47034 -1 0 0
100 34 1 -1.1128 4.87126 33.27264 36.88548 0 0 0
101 34 2 0.5564 4.35905 33.81265 37.51455 0 0 0
102 34 2 0.5564 4.53555 33.6391 36.02366 0 0 0
103 35 1 -1.1128 4.13952 22.93812 15.43534 0 0 0
104 35 2 0.5564 3.92248 23.88217 15.28305 0 0 0
105 35 2 0.5564 4.84257 22.93425 16.15448 0 0 0
106 36 1 -1.1128 36.85874 14.72522 21.94503 0 0 0
107 36 2 0.5564 36.44417 14.74499 22.81791 0 0 0
108 36 2 0.5564 37.2624 13.8832 21.85235 0 0 0
109 37 1 -1.1128 15.65686 16.96496 35.84958 0 0 0
110 37 2 0.5564 14.71725 17.0968 36.08985 0 0 0
111 37 2 0.5564 16.04956 17.84266 35.84724 0 0 0
112 38 1 -1.1128 25.75194 27.60165 25.10862 0 0 0
113 38 2 0.5564 25.86843 27.98952 25.98346 0 0 0
114 38 2 0.5564 25.30384 26.70578 25.11911 0 0 0
115 39 1 -1.1128 13.87464 2.2849 8.90319 0 0 0
116 39 2 0.5564 13.73406 1.92211 9.81002 0 0 0
117 39 2 0.5564 14.42356 1.77591 8.35027 0 0 0
118 40 1 -1.1128 7.84807 9.7427 28.29652 0 0 0
119 40 2 0.5564 8.83158 9.88864 28.29011 0 0 0
120 40 2 0.5564 7.55418 10.38567 29.03331 0 0 0
121 41 1 -1.1128 9.23975 32.24776 36.92223 0 0 0
122 41 2 0.5564 8.72088 32.7648 37.60176 0 0 0
123 41 2 0.5564 10.21935 32.12729 37.09396 0 0 0
124 42 1 -1.1128 0.76767 6.34596 26.80833 0 0 0
125 42 2 0.5564 0.81134 5.78911 27.56226 0 0 0
126 42 2 0.5564 0.56309 7.21907 27.07317 0 0 0
127 43 1 -1.1128 6.4993 17.22319 37.96805 0 0 0
128 43 2 0.5564 6.77041 16.67258 38.7836 0 0 0
129 43 2 0.5564 6.93753 16.82111 37.19606 0 0 0
130 44 1 -1.1128 38.32022 15.72515 30.14054 0 0 0
131 44 2 0.5564 37.7116 16.45553 30.13763 0 0 0
132 44 2 0.5564 37.82711 14.9569 29.84635 0 0 0
133 45 1 -1.1128 28.06005 6.00845 35.12279 0 0 0
134 45 2 0.5564 28.74844 6.69459 35.21925 0 0 0
135 45 2 0.5564 27.34038 6.31588 34.52461 0 0 0
136 46 1 -1.1128 23.06373 0.60449 13.9908 0 -1 0
137 46 2 0.5564 22.17297 1.08022 13.70821 0 -1 0
138 46 2 0.5564 22.90022 39.09935 13.92442 0 0 0
139 47 1 -1.1128 26.48792 18.37332 7.49496 0 0 0
140 47 2 0.5564 27.08084 17.62464 7.32234 0 0 0
141 47 2 0.5564 25.77243 18.00541 7.98208 0 0 0
142 48 1 -1.1128 23.51483 20.19655 15.62325 0 0 0
143 48 2 0.5564 23.37676 20.26179 16.57298 0 0 0
144 48 2 0.5564 24.44336 20.35678 15.44069 0 0 0
145 49 1 -1.1128 33.34148 37.06228 14.90631 0 0 0
146 49 2 0.5564 34.11669 36.50799 14.87746 0 0 0
147 49 2 0.5564 33.21063 36.98939 15.88812 0 0 0
148 50 1 -1.1128 25.70915 28.34994 27.70676 0 0 0
149 50 2 0.5564 25.80307 28.88161 28.52641 0 0 0
150 50 2 0.5564 25.68405 27.36581 27.9518 0 0 0
151 51 1 -1.1128 35.56926 13.4153 5.40536 0 0 0
152 51 2 0.5564 36.02289 12.75083 4.83524 0 0 0
153 51 2 0.5564 35.16185 12.99837 6.23414 0 0 0
154 52 1 -1.1128 29.99437 8.00659 22.11887 0 0 0
155 52 2 0.5564 29.93995 8.41353 21.25435 0 0 0
156 52 2 0.5564 29.0953 8.15546 22.45244 0 0 0
157 53 1 -1.1128 8.67294 33.86017 6.9642 0 0 0
158 53 2 0.5564 9.47289 33.60718 6.5121 0 0 0
159 53 2 0.5564 8.85292 34.43001 7.7357 0 0 0
160 54 1 -1.1128 14.53973 33.31659 22.35573 0 0 0
161 54 2 0.5564 13.95693 32.83587 21.81927 0 0 0
162 54 2 0.5564 14.99598 34.04976 21.928 0 0 0
163 55 1 -1.1128 21.27389 4.95511 37.43938 0 0 0
164 55 2 0.5564 20.80779 5.81775 37.4332 0 0 0
165 55 2 0.5564 20.92458 4.49663 36.63075 0 0 0
166 56 1 -1.1128 4.87224 12.10494 21.62981 0 0 0
167 56 2 0.5564 4.09871 12.5477 21.13368 0 0 0
168 56 2 0.5564 5.59565 11.97006 20.95743 0 0 0
169 57 1 -1.1128 26.40834 15.94666 9.97713 0 0 0
170 57 2 0.5564 26.40499 15.22799 9.35735 0 0 0
171 57 2 0.5564 27.21239 16.48596 9.88781 0 0 0
172 58 1 -1.1128 28.31895 21.09762 20.22636 0 0 0
173 58 2 0.5564 28.70327 20.25961 19.78997 0 0 0
174 58 2 0.5564 29.08142 21.60396 20.57388 0 0 0
175 59 1 -1.1128 33.31772 29.73677 4.62222 0 0 0
176 59 2 0.5564 32.50987 30.25108 4.57821 0 0 0
177 59 2 0.5564 33.01967 28.84017 4.76818 0 0 0
178 60 1 -1.1128 28.93392 29.83946 26.84463 0 0 0
179 60 2 0.5564 29.49797 30.13702 26.06952 0 0 0
180 60 2 0.5564 29.16404 28.88786 26.97893 0 0 0
181 61 1 -1.1128 13.0531 1.12084 39.46096 0 0 0
182 61 2 0.5564 13.65792 1.75513 0.40987 0 0 0
183 61 2 0.5564 12.19495 1.57398 39.19429 0 0 0
184 62 1 -1.1128 6.94427 10.99582 19.89349 0 0 0
185 62 2 0.5564 7.09755 10.14171 20.34174 0 0 0
186 62 2 0.5564 7.24719 10.70713 19.02103 0 0 0
187 63 1 -1.1128 12.18745 20.48257 5.29539 0 0 0
188 63 2 0.5564 12.54838 21.30968 5.00793 0 0 0
189 63 2 0.5564 12.90752 19.81164 5.18013 0 0 0
190 64 1 -1.1128 13.57716 2.11478 33.31696 0 0 0
191 64 2 0.5564 12.89516 2.07679 34.01944 0 1 0
192 64 2 0.5564 13.83342 1.18299 33.39663 0 1 0
193 65 1 -1.1128 8.74998 36.17885 2.5865 0 0 0
194 65 2 0.5564 8.88552 35.24187 2.50076 0 0 0
195 65 2 0.5564 7.97649 36.23651 3.14566 0 0 0
196 66 1 -1.1128 8.91089 15.45708 18.65555 0 0 0
197 66 2 0.5564 8.4754 16.00889 19.33735 0 0 0
198 66 2 0.5564 8.89911 14.57496 19.08125 0 0 0
199 67 1 -1.1128 4.29965 32.6553 1.41604 0 0 0
200 67 2 0.5564 4.32753 31.92734 2.03406 0 0 0
201 67 2 0.5564 5.13231 32.52504 0.87163 0 0 0
202 68 1 -1.1128 38.43261 20.65365 23.4776 0 0 0
203 68 2 0.5564 37.89061 21.34122 23.01108 0 0 0
204 68 2 0.5564 37.70382 20.1675 23.93982 0 0 0
205 69 1 -1.1128 28.43638 3.77013 5.84915 0 0 0
206 69 2 0.5564 29.30453 4.24222 5.88464 0 0 0
207 69 2 0.5564 28.58054 3.11998 5.11212 0 0 0
208 70 1 -1.1128 21.90333 8.10116 27.25324 0 0 0
209 70 2 0.5564 22.13894 8.29878 28.18803 0 0 0
210 70 2 0.5564 20.94528 7.74854 27.13598 0 0 0
211 71 1 -1.1128 33.88677 25.25026 3.35312 0 0 0
212 71 2 0.5564 34.47699 26.03449 3.52037 0 0 0
213 71 2 0.5564 33.70328 24.99229 4.27525 0 0 0
214 72 1 -1.1128 35.13427 23.402 31.63348 0 0 0
215 72 2 0.5564 34.45012 23.60705 32.34739 0 0 0
216 72 2 0.5564 35.89102 23.17797 32.18844 0 0 0
217 73 1 -1.1128 30.352 7.53654 35.98072 0 0 0
218 73 2 0.5564 30.86759 6.79548 36.24477 0 0 0
219 73 2 0.5564 30.90642 8.17388 35.48548 0 0 0
220 74 1 -1.1128 33.09922 21.72793 13.76831 0 0 0
221 74 2 0.5564 32.68697 20.8436 13.35571 0 0 0
222 74 2 0.5564 32.63175 22.49225 13.37642 0 0 0
223 75 1 -1.1128 24.19279 29.87838 0.14253 0 0 0
224 75 2 0.5564 24.61335 29.78265 1.05729 0 0 0
225 75 2 0.5564 23.70476 30.77866 0.16993 0 0 0
226 76 1 -1.1128 27.12012 29.29888 15.2346 0 0 0
227 76 2 0.5564 27.72898 29.51147 14.50899 0 0 0
228 76 2 0.5564 26.57664 28.60898 14.78041 0 0 0
229 77 1 -1.1128 6.40655 11.64715 0.81116 0 0 0
230 77 2 0.5564 6.91274 12.13254 0.1742 0 0 0
231 77 2 0.5564 6.69637 10.73112 0.64241 0 0 0
232 78 1 -1.1128 7.18205 12.16187 10.49039 0 0 0
233 78 2 0.5564 6.20273 12.27182 10.49835 0 0 0
234 78 2 0.5564 7.40416 12.23954 11.45054 0 0 0
235 79 1 -1.1128 13.60852 33.15128 0.77884 0 0 0
236 79 2 0.5564 12.72922 33.60446 0.85317 0 0 0
237 79 2 0.5564 13.48964 32.30026 0.37309 0 0 0
238 80 1 -1.1128 8.20741 20.73935 19.25422 0 0 0
239 80 2 0.5564 7.42648 20.73977 18.63917 0 0 0
240 80 2 0.5564 8.1302 19.87002 19.69307 0 0 0
241 81 1 -1.1128 29.99439 33.73889 3.29088 0 0 0
242 81 2 0.5564 29.24613 34.31492 2.91844 0 0 0
243 81 2 0.5564 30.8722 34.09542 3.14818 0 0 0
244 82 1 -1.1128 34.3028 33.9506 27.30202 0 0 0
245 82 2 0.5564 34.97221 34.21509 26.63692 0 0 0
246 82 2 0.5564 33.54806 33.51034 26.97811 0 0 0
247 83 1 -1.1128 39.37676 20.02809 15.12251 0 0 0
248 83 2 0.5564 39.04559 20.91942 15.18235 0 0 0
249 83 2 0.5564 0.69282 19.93915 15.655 0 0 0
250 84 1 -1.1128 5.93146 16.47388 28.62893 0 0 0
251 84 2 0.5564 5.12626 15.98752 28.46686 0 0 0
252 84 2 0.5564 6.53038 16.3832 27.91755 0 0 0
253 85 1 -1.1128 11.71071 31.68338 37.01506 0 0 0
254 85 2 0.5564 11.84328 30.73103 36.90373 0 0 0
255 85 2 0.5564 11.87315 32.05588 36.089 0 0 0
256 86 1 -1.1128 21.17909 30.37394 16.73324 0 0 0
257 86 2 0.5564 21.80374 29.81012 16.25456 0 0 0
258 86 2 0.5564 20.33593 30.47945 16.18792 0 0 0
259 87 1 -1.1128 18.72526 21.08609 8.39586 0 0 0
260 87 2 0.5564 18.91638 21.92018 8.80673 0 0 0
261 87 2 0.5564 19.28282 21.00431 7.60021 0 0 0
262 88 1 -1.1128 8.98193 22.29651 15.56771 0 0 0
263 88 2 0.5564 8.20849 21.78557 15.53995 0 0 0
264 88 2 0.5564 9.21076 22.46411 16.50775 0 0 0
265 89 1 -1.1128 3.68745 35.23213 39.14397 0 0 0
266 89 2 0.5564 3.93707 34.83132 0.53268 0 0 0
267 89 2 0.5564 2.71467 35.23126 39.01225 0 0 0
268 90 1 -1.1128 3.63071 38.43533 31.14256 0 0 0
269 90 2 0.5564 3.89548 38.16719 32.06905 0 0 0
270 90 2 0.5564 2.69486 38.6158 31.10166 0 0 0
271 91 1 -1.1128 8.10811 21.02428 39.31969 0 0 0
272 91 2 0.5564 7.58028 20.76369 0.61704 0 0 -1
273 91 2 0.5564 7.8171 21.94573 39.24822 0 0 0
274 92 1 -1.1128 35.18477 20.67849 30.65871 0 0 0
275 92 2 0.5564 36.09993 20.6365 30.3733 0 0 0
276 92 2 0.5564 35.05244 21.60784 30.82293 0 0 0
277 93 1 -1.1128 25.5395 36.38255 38.24789 0 0 0
278 93 2 0.5564 25.04927 37.14123 37.93075 0 0 1
279 93 2 0.5564 24.87927 35.88706 38.7137 0 0 0
280 94 1 -1.1128 19.61204 30.59492 25.88367 0 0 0
281 94 2 0.5564 19.94399 31.09941 26.63597 0 0 0
282 94 2 0.5564 20.34443 30.05476 25.62464 0 0 0
283 95 1 -1.1128 30.39777 31.57642 35.06465 0 0 0
284 95 2 0.5564 29.91466 31.92761 35.84353 0 0 0
285 95 2 0.5564 31.24724 32.01521 35.0356 0 0 0
286 96 1 -1.1128 15.98817 29.8206 13.79349 0 0 0
287 96 2 0.5564 16.66198 29.92244 13.12665 0 0 0
288 96 2 0.5564 16.47091 29.61874 14.62498 0 0 0
289 97 1 -1.1128 26.3846 12.49799 35.46316 0 0 0
290 97 2 0.5564 26.23745 11.84755 36.22154 0 0 0
291 97 2 0.5564 26.19349 12.10055 34.6135 0 0 0
292 98 1 -1.1128 38.01316 39.38993 16.47865 0 0 0
293 98 2 0.5564 37.46826 0.43033 17.08191 0 0 0
294 98 2 0.5564 37.56114 0.06404 15.6571 0 0 0
295 99 1 -1.1128 1.55599 26.16071 36.65923 0 0 0
296 99 2 0.5564 1.58235 25.23646 37.11521 0 0 0
297 99 2 0.5564 0.84412 26.65649 37.05832 0 0 0
298 100 1 -1.1128 31.09099 24.16483 35.62292 0 0 0
299 100 2 0.5564 30.87012 23.61673 36.32586 0 0 0
300 100 2 0.5564 30.39402 24.83886 35.6594 0 0 0
301 101 1 -1.1128 22.63185 0.07682 3.80261 0 0 0
302 101 2 0.5564 23.44166 38.97206 3.72282 0 0 0
303 101 2 0.5564 22.17822 39.29228 4.61938 0 0 0
304 102 1 -1.1128 24.4813 34.27648 34.11154 0 0 0
305 102 2 0.5564 24.91827 33.4549 33.81363 0 0 0
306 102 2 0.5564 25.0824 35.04296 34.05487 0 0 0
307 103 1 -1.1128 18.6069 21.58495 1.19775 0 0 0
308 103 2 0.5564 18.4406 22.44546 0.82077 0 0 0
309 103 2 0.5564 17.85802 21.38422 1.74263 0 0 0
310 104 1 -1.1128 17.79546 23.14957 23.54766 0 0 0
311 104 2 0.5564 17.443 22.85832 22.6406 0 0 0
312 104 2 0.5564 17.57093 24.10747 23.39493 0 0 0
313 105 1 -1.1128 29.75445 34.16558 6.08709 0 0 0
314 105 2 0.5564 29.92811 33.74391 6.95969 0 0 0
315 105 2 0.5564 30.11503 33.66346 5.403 0 0 0
316 106 1 -1.1128 38.14968 23.39719 25.17756 0 0 0
317 106 2 0.5564 37.42701 23.7437 24.63587 0 0 0
318 106 2 0.5564 37.83103 23.25261 26.14387 0 0 0
319 107 1 -1.1128 32.41691 13.31799 37.96612 0 0 0
320 107 2 0.5564 32.37144 14.1692 37.53721 0 0 0
321 107 2 0.5564 31.75609 13.19085 38.58506 0 0 0
322 108 1 -1.1128 3.58272 20.78253 18.98031 0 0 0
323 108 2 0.5564 4.2827 20.49402 18.35258 0 0 0
324 108 2 0.5564 3.8781 21.73859 19.20895 0 0 0
325 109 1 -1.1128 4.0995 30.41022 3.79371 0 0 0
326 109 2 0.5564 3.90368 29.40352 3.65234 0 0 0
327 109 2 0.5564 4.74 30.32281 4.50773 0 0 0
328 110 1 -1.1128 10.93608 0.04136 13.88301 0 0 0
329 110 2 0.5564 11.29876 38.99945 13.1102 0 0 0
330 110 2 0.5564 11.6473 0.50915 14.30545 0 1 0
331 111 1 -1.1128 22.27269 19.93684 2.21201 0 0 0
332 111 2 0.5564 22.9331 19.38754 1.8879 0 0 0
333 111 2 0.5564 21.69213 19.34034 2.75961 0 0 0
334 112 1 -1.1128 20.70123 9.07992 19.44513 0 0 0
335 112 2 0.5564 20.64845 9.66602 18.66617 0 0 0
336 112 2 0.5564 20.00323 8.40382 19.29016 0 0 0
337 113 1 -1.1128 6.23437 34.80309 8.34659 0 0 0
338 113 2 0.5564 6.07585 34.36998 7.5326 0 0 0
339 113 2 0.5564 5.40737 34.87292 8.79572 0 0 0
340 114 1 -1.1128 3.74281 1.72743 24.48523 0 0 0
341 114 2 0.5564 3.45443 2.47267 25.07505 0 0 0
342 114 2 0.5564 4.67609 1.91941 24.29124 0 0 0
343 115 1 -1.1128 3.05581 28.79519 13.02804 0 0 0
344 115 2 0.5564 2.36247 28.33673 12.54167 0 0 0
345 115 2 0.5564 2.74049 29.69739 13.02928 0 0 0
346 116 1 -1.1128 34.7463 18.14243 28.25574 0 0 0
347 116 2 0.5564 34.6471 17.79786 27.31917 0 0 0
348 116 2 0.5564 33.9094 18.47085 28.43219 0 0 0
349 117 1 -1.1128 28.91422 1.87035 10.39306 0 0 0
350 117 2 0.5564 28.62823 2.41976 11.15947 0 0 0
351 117 2 0.5564 28.2048 1.30885 10.22921 0 0 0
352 118 1 -1.1128 25.80923 37.65131 28.1846 0 1 0
353 118 2 0.5564 25.44114 38.17069 28.93933 0 0 0
354 118 2 0.5564 25.9314 36.78896 28.51668 0 0 0
355 119 1 -1.1128 7.10204 20.35352 2.58714 0 0 0
356 119 2 0.5564 6.85349 21.00673 3.26324 0 0 0
357 119 2 0.5564 6.40882 19.67062 2.73304 0 0 0
358 120 1 -1.1128 25.71683 22.72324 29.49695 0 0 0
359 120 2 0.5564 26.3675 23.19198 30.0171 0 0 0
360 120 2 0.5564 26.07097 22.71488 28.60674 0 0 0
361 121 1 -1.1128 3.7204 6.49702 35.12234 0 0 0
362 121 2 0.5564 3.87363 7.35041 35.54877 0 0 0
363 121 2 0.5564 3.89857 5.82126 35.79365 0 0 0
364 122 1 -1.1128 0.78402 6.09179 16.47316 0 0 0
365 122 2 0.5564 0.53031 5.65283 17.26724 0 0 0
366 122 2 0.5564 0.87055 7.02422 16.62794 0 0 0
367 123 1 -1.1128 32.4757 33.54685 37.30467 0 0 0
368 123 2 0.5564 31.53189 33.37998 37.365 0 0 0
369 123 2 0.5564 32.68982 34.46445 37.46967 0 0 0
370 124 1 -1.1128 2.63161 34.13534 28.86588 0 0 0
371 124 2 0.5564 3.34622 33.49069 28.87895 0 0 0
372 124 2 0.5564 2.48803 34.36857 29.79899 0 0 0
373 125 1 -1.1128 14.28075 10.36326 6.15341 0 0 0
374 125 2 0.5564 13.83965 9.89382 5.46871 0 0 0
375 125 2 0.5564 14.48926 9.59953 6.76267 0 0 0
376 126 1 -1.1128 18.7381 11.03103 9.95179 0 0 0
377 126 2 0.5564 18.58741 11.47964 9.10447 0 0 0
378 126 2 0.5564 19.64044 11.25063 10.10472 0 0 0
379 127 1 -1.1128 21.55909 29.29628 11.15562 0 0 0
380 127 2 0.5564 20.70885 28.837 11.05037 0 0 0
381 127 2 0.5564 21.99801 29.08434 10.35331 0 0 0
382 128 1 -1.1128 34.30542 31.4304 30.11367 0 0 0
383 128 2 0.5564 34.20345 30.72513 30.78802 0 0 0
384 128 2 0.5564 34.75444 32.14041 30.68648 0 0 0
385 129 1 -1.1128 13.264 32.85622 31.57864 0 0 0
386 129 2 0.5564 13.11618 33.46999 30.75723 0 0 0
387 129 2 0.5564 14.04234 32.371 31.24506 0 0 0
388 130 1 -1.1128 5.89769 2.71885 11.1074 0 0 0
389 130 2 0.5564 5.57261 2.01871 11.69226 0 0 0
390 130 2 0.5564 6.29986 3.25607 11.73251 0 0 0
391 131 1 -1.1128 4.04244 12.03177 38.48463 0 0 0
392 131 2 0.5564 3.63416 11.78755 37.63905 0 0 0
393 131 2 0.5564 4.79689 12.50757 38.16464 0 0 0
394 132 1 -1.1128 9.32794 8.32736 12.18146 0 0 0
395 132 2 0.5564 9.49224 9.13375 11.63319 0 0 0
396 132 2 0.5564 8.42758 8.34233 12.48366 0 0 0
397 133 1 -1.1128 28.43103 30.23403 30.55034 0 0 0
398 133 2 0.5564 28.27239 29.30012 30.7397 0 0 0
399 133 2 0.5564 29.21876 30.20556 29.96416 0 0 0
400 134 1 -1.1128 24.09224 36.04196 7.78662 0 0 0
401 134 2 0.5564 23.67082 35.17386 7.83728 0 0 0
402 134 2 0.5564 24.67616 36.13353 7.04365 0 0 0
403 135 1 -1.1128 31.0879 12.61126 32.18388 0 0 0
404 135 2 0.5564 31.09627 13.25346 31.39011 0 0 0
405 135 2 0.5564 30.86169 11.70296 31.81467 0 0 0
406 136 1 -1.1128 4.28698 20.25347 14.58427 0 0 0
407 136 2 0.5564 4.12731 21.17528 14.8142 0 0 0
408 136 2 0.5564 3.84615 19.65049 15.18278 0 0 0
409 137 1 -1.1128 32.71741 36.24513 37.84539 0 0 0
410 137 2 0.5564 33.47152 36.83735 37.63099 0 0 0
411 137 2 0.5564 32.07752 36.91613 38.06394 0 0 0
412 138 1 -1.1128 30.53857 7.25964 12.35947 0 0 0
413 138 2 0.5564 30.60168 6.34382 12.14319 0 0 0
414 138 2 0.5564 29.81203 7.59031 11.76007 0 0 0
415 139 1 -1.1128 25.42041 28.86987 34.02584 0 0 0
416 139 2 0.5564 26.345 28.84838 34.47547 0 0 0
417 139 2 0.5564 25.36132 28.274 33.28771 0 0 0
418 140 1 -1.1128 26.81262 20.95527 22.2856 0 0 0
419 140 2 0.5564 27.13731 20.53045 23.06277 0 0 0
420 140 2 0.5564 27.36183 20.74761 21.51477 0 0 0
421 141 1 -1.1128 9.37921 35.89239 28.81292 0 0 0
422 141 2 0.5564 8.60459 36.10691 29.33318 0 0 0
423 141 2 0.5564 9.43642 36.66458 28.22932 0 0 0
424 142 1 -1.1128 11.7448 3.2249 7.64462 0 0 0
425 142 2 0.5564 12.0344 4.12065 7.48287 0 0 0
426 142 2 0.5564 12.5003 2.75935 8.09466 0 0 0
427 143 1 -1.1128 20.06228 19.13529 34.34833 0 0 0
428 143 2 0.5564 20.98468 19.25037 34.51281 0 0 0
429 143 2 0.5564 19.98815 18.51354 33.66022 0 0 0
430 144 1 -1.1128 5.62978 24.71988 6.26 0 0 0
431 144 2 0.5564 4.94104 24.78886 6.9859 0 0 0
432 144 2 0.5564 6.29529 24.11534 6.58445 0 0 0
433 145 1 -1.1128 12.12961 35.87455 2.50084 0 0 0
434 145 2 0.5564 12.14797 36.73527 2.17437 0 0 0
435 145 2 0.5564 11.88162 35.88888 3.4713 0 0 0
436 146 1 -1.1128 5.56832 39.22145 29.26642 0 0 0
437 146 2 0.5564 5.29314 39.24223 28.33986 0 1 0
438 146 2 0.5564 4.78428 38.98858 29.85912 0 0 0
439 147 1 -1.1128 38.55724 17.54649 10.71483 0 0 0
440 147 2 0.5564 38.20642 18.42412 10.41537 -1 0 0
441 147 2 0.5564 39.45675 17.78231 10.99749 0 0 0
442 148 1 -1.1128 7.20242 7.28254 33.46435 0 0 0
443 148 2 0.5564 7.04153 6.35062 33.30092 0 0 0
444 148 2 0.5564 6.43922 7.69367 32.99174 0 0 0
445 149 1 -1.1128 28.02115 36.80776 16.24585 0 0 0
446 149 2 0.5564 28.7203 37.1632 16.75687 0 0 0
447 149 2 0.5564 27.71024 35.98042 16.67607 0 0 0
448 150 1 -1.1128 32.06632 32.56688 29.32834 0 0 0
449 150 2 0.5564 32.9586 32.37108 29.67686 0 0 0
450 150 2 0.5564 31.59587 33.08062 30.03798 0 0 0
451 151 1 -1.1128 22.42079 14.97994 5.95136 0 0 0
452 151 2 0.5564 22.64157 15.57703 5.2687 0 0 0
453 151 2 0.5564 23.21566 14.50164 6.09098 0 0 0
454 152 1 -1.1128 16.22376 20.0575 20.23705 0 0 0
455 152 2 0.5564 16.98664 19.77584 20.69466 0 0 0
456 152 2 0.5564 15.56702 20.3019 20.94521 0 0 0
457 153 1 -1.1128 37.73551 6.81888 36.01836 0 0 0
458 153 2 0.5564 37.53193 7.56735 36.61159 0 0 0
459 153 2 0.5564 38.62199 7.04145 35.62868 0 0 0
460 154 1 -1.1128 4.40446 8.08936 9.74803 0 0 0
461 154 2 0.5564 4.49614 8.34751 10.67368 0 0 0
462 154 2 0.5564 5.22945 7.59034 9.61823 0 0 0
463 155 1 -1.1128 2.18929 18.03976 27.30182 0 0 0
464 155 2 0.5564 2.18028 17.92422 26.35092 0 0 0
465 155 2 0.5564 3.02995 18.45984 27.42244 0 0 0
466 156 1 -1.1128 36.31967 21.93063 20.00319 0 0 0
467 156 2 0.5564 36.62785 22.55562 20.68384 0 0 0
468 156 2 0.5564 36.33204 22.24377 19.1243 0 0 0
469 157 1 -1.1128 16.06951 3.14809 32.61539 0 0 0
470 157 2 0.5564 15.26508 2.73154 32.85032 0 0 0
471 157 2 0.5564 16.57214 3.38739 33.38652 0 0 0
472 158 1 -1.1128 0.89608 1.81643 7.46289 0 1 0
473 158 2 0.5564 1.23804 1.155 8.05731 0 1 0
474 158 2 0.5564 1.60436 2.00433 6.81469 0 0 0
475 159 1 -1.1128 13.19699 23.4329 35.4656 0 0 0
476 159 2 0.5564 14.06412 23.80892 35.61986 0 0 0
477 159 2 0.5564 13.00489 22.76974 36.12928 0 0 0
478 160 1 -1.1128 24.98495 20.91796 0.17491 0 0 0
479 160 2 0.5564 25.26597 20.01831 0.17849 0 0 0
480 160 2 0.5564 24.06421 20.97139 39.2812 0 0 0
481 161 1 -1.1128 12.5838 31.25862 9.32433 0 0 0
482 161 2 0.5564 13.52705 31.40116 9.44004 0 0 0
483 161 2 0.5564 12.20756 32.02321 8.90932 0 0 0
484 162 1 -1.1128 37.59111 39.04788 29.31336 0 0 0
485 162 2 0.5564 37.10481 39.27493 30.18889 0 0 0
486 162 2 0.5564 38.38631 38.67339 29.62239 0 0 0
487 163 1 -1.1128 33.04332 5.77058 6.06446 0 0 0
488 163 2 0.5564 32.65513 6.55059 5.71125 0 0 0
489 163 2 0.5564 33.39573 6.03132 6.94004 0 0 0
490 164 1 -1.1128 30.83528 12.78209 20.56587 0 0 0
491 164 2 0.5564 31.61933 13.24367 20.82295 0 0 0
492 164 2 0.5564 30.25936 13.39077 20.04518 0 0 0
493 165 1 -1.1128 15.15675 37.92982 18.31355 0 0 0
494 165 2 0.5564 15.23951 38.50279 19.07989 0 0 0
495 165 2 0.5564 14.63764 37.12584 18.55618 0 0 0
496 166 1 -1.1128 12.02296 39.45064 27.13881 0 1 0
497 166 2 0.5564 12.75731 38.95132 27.50027 0 0 0
498 166 2 0.5564 12.41048 0.39269 26.3029 0 0 0
499 167 1 -1.1128 19.96119 22.17124 3.66695 0 0 0
500 167 2 0.5564 20.02639 21.46218 4.35336 0 0 0
501 167 2 0.5564 19.60624 21.72655 2.88878 0 0 0
502 168 1 -1.1128 19.41125 15.01692 33.56781 0 0 0
503 168 2 0.5564 19.46117 15.68747 34.31306 0 0 0
504 168 2 0.5564 20.29475 14.68187 33.49675 0 0 0
505 169 1 -1.1128 37.30715 0.61165 35.32259 0 0 0
506 169 2 0.5564 36.29135 0.58747 35.42823 0 0 0
507 169 2 0.5564 37.56078 39.30941 34.79791 0 0 0
508 170 1 -1.1128 8.95956 35.06435 12.29623 0 0 0
509 170 2 0.5564 9.95536 35.00187 12.45796 0 0 0
510 170 2 0.5564 8.78915 34.8216 11.36318 0 0 0
511 171 1 -1.1128 3.62646 17.0276 7.73007 0 0 0
512 171 2 0.5564 3.98503 16.40631 8.38493 0 0 0
513 171 2 0.5564 3.07425 17.68702 8.15625 0 0 0
514 172 1 -1.1128 5.12717 22.08397 24.65596 0 0 0
515 172 2 0.5564 4.19406 21.9163 24.93627 0 0 0
516 172 2 0.5564 5.55628 22.43787 25.434 0 0 0
517 173 1 -1.1128 28.65625 35.09535 34.9869 0 0 0
518 173 2 0.5564 29.35105 34.73515 34.47936 0 0 0
519 173 2 0.5564 28.19921 35.73287 34.43044 0 0 0
520 174 1 -1.1128 29.58709 33.39822 24.42581 0 0 0
521 174 2 0.5564 30.36121 33.87594 24.0082 0 0 0
522 174 2 0.5564 28.74837 33.90565 24.15995 0 0 0
523 175 1 -1.1128 28.40047 4.8096 37.6235 0 0 0
524 175 2 0.5564 28.03171 5.01134 36.74376 0 0 0
525 175 2 0.5564 27.88628 5.38284 38.17242 0 0 0
526 176 1 -1.1128 24.8921 5.23688 14.74503 0 0 0
527 176 2 0.5564 25.38329 4.81182 14.05171 0 0 0
528 176 2 0.5564 24.47189 4.4523 15.19783 0 0 0
529 177 1 -1.1128 34.81383 11.29674 18.6449 0 0 0
530 177 2 0.5564 35.35728 10.63133 19.1141 0 0 0
531 177 2 0.5564 33.93111 10.85128 18.63438 0 0 0
532 178 1 -1.1128 26.22117 24.55101 18.95576 0 0 0
533 178 2 0.5564 27.04509 24.76082 19.46213 0 0 0
534 178 2 0.5564 26.01759 25.44251 18.63772 0 0 0
535 179 1 -1.1128 26.9799 25.07438 15.06464 0 0 0
536 179 2 0.5564 27.65901 24.51453 15.37581 0 0 0
537 179 2 0.5564 27.42085 25.89861 14.86805 0 0 0
538 180 1 -1.1128 27.99925 17.27829 30.35404 0 0 0
539 180 2 0.5564 28.25504 17.22614 31.29077 0 0 0
540 180 2 0.5564 27.366 18.02765 30.21089 0 0 0
541 181 1 -1.1128 16.84617 15.00254 32.27298 0 0 0
542 181 2 0.5564 16.10426 15.08043 32.86652 0 0 0
543 181 2 0.5564 17.67526 14.86733 32.75409 0 0 0
544 182 1 -1.1128 15.26853 0.72159 26.89172 0 0 0
545 182 2 0.5564 15.38554 1.46047 26.2577 0 -1 0
546 182 2 0.5564 14.95742 1.20345 27.69708 0 0 0
547 183 1 -1.1128 11.33169 26.85056 3.09484 0 0 0
548 183 2 0.5564 11.28182 25.95096 3.37104 0 0 0
549 183 2 0.5564 10.84286 27.3449 3.82366 0 0 0
550 184 1 -1.1128 11.93949 27.54772 29.37524 0 0 0
551 184 2 0.5564 11.43528 28.19569 28.82685 0 0 0
552 184 2 0.5564 12.47041 27.09478 28.72895 0 0 0
553 185 1 -1.1128 3.32677 14.19117 2.51261 0 0 0
554 185 2 0.5564 2.77991 14.78391 3.04031 0 0 0
555 185 2 0.5564 4.0141 13.76738 3.00849 0 0 0
556 186 1 -1.1128 3.34947 6.58282 23.02317 0 0 0
557 186 2 0.5564 3.66896 6.06542 23.8099 0 0 0
558 186 2 0.5564 2.5416 6.98623 23.32957 0 0 0
559 187 1 -1.1128 5.61717 27.36673 6.46836 0 0 0
560 187 2 0.5564 6.51475 27.79062 6.43354 0 0 0
561 187 2 0.5564 5.83327 26.36714 6.39805 0 0 0
562 188 1 -1.1128 4.62619 32.11727 29.00558 0 0 0
563 188 2 0.5564 4.81511 31.63707 29.84706 0 0 0
564 188 2 0.5564 5.24806 31.71876 28.41783 0 0 0
565 189 1 -1.1128 25.82144 8.06251 37.8824 0 0 0
566 189 2 0.5564 24.97764 8.22397 38.30226 0 0 0
567 189 2 0.5564 26.24411 7.49582 38.51833 0 0 0
568 190 1 -1.1128 17.67204 16.51352 25.63136 0 0 0
569 190 2 0.5564 17.08226 17.07014 25.08719 0 0 0
570 190 2 0.5564 18.53906 16.95279 25.41228 0 0 0
571 191 1 -1.1128 10.95595 28.5392 5.54343 0 0 0
572 191 2 0.5564 11.53243 28.5177 6.31051 0 0 0
573 191 2 0.5564 11.21701 29.27708 4.97153 0 0 0
574 192 1 -1.1128 14.60503 33.51565 18.79033 0 0 0
575 192 2 0.5564 15.137 33.66603 18.00182 0 0 0
576 192 2 0.5564 14.34288 34.35839 19.14654 0 0 0
577 193 1 -1.1128 36.91973 6.43518 39.16766 0 0 0
578 193 2 0.5564 36.0326 6.67787 38.88914 1 0 0
579 193 2 0.5564 37.07658 6.9785 0.50082 0 0 0
580 194 1 -1.1128 34.25956 33.62029 23.01185 0 0 0
581 194 2 0.5564 35.03179 34.14833 23.21825 0 0 0
582 194 2 0.5564 34.51915 33.37166 22.09237 0 0 0
583 195 1 -1.1128 6.89245 25.42195 32.08477 0 0 0
584 195 2 0.5564 6.86663 26.17629 31.46695 0 0 0
585 195 2 0.5564 7.79825 25.60927 32.47648 0 0 0
586 196 1 -1.1128 32.41164 24.05685 18.04451 0 0 0
587 196 2 0.5564 31.82402 24.47386 18.66468 0 0 0
588 196 2 0.5564 31.95604 23.37398 17.50693 0 0 0
589 197 1 -1.1128 12.28157 6.22625 32.60962 0 0 0
590 197 2 0.5564 12.29063 5.57535 31.81341 0 0 0
591 197 2 0.5564 11.38977 6.69003 32.59553 0 0 0
592 198 1 -1.1128 13.9444 3.53428 16.04648 0 0 0
593 198 2 0.5564 13.24592 4.06271 16.50179 0 0 0
594 198 2 0.5564 14.62919 3.50154 16.7594 0 0 0
595 199 1 -1.1128 17.80601 30.62292 30.083 0 0 0
596 199 2 0.5564 17.10855 30.42775 29.43932 0 0 0
597 199 2 0.5564 18.54227 30.06734 29.94255 0 0 0
598 200 1 -1.1128 14.56738 25.75143 16.58156 0 0 0
599 200 2 0.5564 14.01066 24.95462 16.32921 0 0 0
600 200 2 0.5564 14.14563 26.12901 17.35884 0 0 0
601 201 1 -1.1128 1.3221 23.20591 4.69242 0 0 0
602 201 2 0.5564 2.26705 23.214 4.47655 0 0 0
603 201 2 0.5564 1.00332 23.98978 4.21491 0 0 0
604 202 1 -1.1128 17.20786 3.12897 35.21073 0 0 0
605 202 2 0.5564 17.20682 3.20763 36.17447 0 0 0
606 202 2 0.5564 17.19369 2.18055 34.94831 0 -1 0
607 203 1 -1.1128 39.39123 14.66936 24.7607 0 0 0
608 203 2 0.5564 39.43778 14.54841 23.8077 -1 0 0
609 203 2 0.5564 38.60589 15.19805 25.01432 0 0 0
610 204 1 -1.1128 10.10071 25.74855 27.07614 0 0 0
611 204 2 0.5564 9.99647 24.76147 27.17277 0 0 0
612 204 2 0.5564 11.0769 25.81446 26.83086 0 0 0
613 205 1 -1.1128 33.5455 8.58212 5.61577 0 0 0