LAMMPS data file via write_data, version 29 Sep 2021, timestep = 6500

6144 atoms
2 atom types

0 39.461426 xlo xhi
0 39.461426 ylo yhi
0 39.461426 zlo zhi

Masses

1 15.999
2 1.008

Atoms # full

4136 0 2 0.330982 5.91937 6.21256 38.20686 0 0 1
673 0 1 -0.661964 3.08774 2.6437 5.74213 0 0 0
674 0 2 0.330982 3.68421 2.07812 5.31624 0 0 0
675 0 2 0.330982 3.73194 3.2865 6.0949 0 0 0
2929 0 1 -0.661964 5.49727 0.7775 4.68731 0 0 0
3626 0 2 0.330982 1.37412 6.74042 38.60708 0 0 0
4321 0 1 -0.661964 0.75189 2.30062 36.27759 0 0 1
3811 0 1 -0.661964 3.65369 3.42105 1.72761 0 0 0
3812 0 2 0.330982 4.51214 3.19161 2.1676 0 0 0
3813 0 2 0.330982 3.79354 4.39469 1.6518 0 0 0
4061 0 2 0.330982 6.28381 38.17113 1.18692 0 0 0
4167 0 2 0.330982 5.0181 5.46811 3.9813 0 0 0
5871 0 2 0.330982 16.31541 8.91949 11.37729 0 0 0
186 0 2 0.330982 7.24719 10.70713 19.02103 0 0 0
4203 0 2 0.330982 0.75946 2.64161 3.92874 0 0 0
4441 0 1 -0.661964 0.61606 5.57516 37.64035 0 0 0
1639 0 1 -0.661964 1.81953 19.02282 8.03407 0 0 0
4443 0 2 0.330982 0.39768 4.88737 38.3809 0 0 0
4753 0 1 -0.661964 2.60675 5.02911 3.74062 0 0 0
4755 0 2 0.330982 3.1209 4.26198 3.503 0 0 0
5332 0 1 -0.661964 4.49642 6.08778 1.87284 0 0 0
5333 0 2 0.330982 3.74266 6.59127 2.05474 0 0 0
5334 0 2 0.330982 4.74409 6.38345 1.0064 0 0 0
5498 0 2 0.330982 38.2755 3.06034 4.89673 0 0 0
2234 0 2 0.330982 18.01901 3.58774 38.4063 0 0 0
5499 0 2 0.330982 39.14063 4.14899 4.23487 0 0 0
6119 0 2 0.330982 14.50379 14.55703 16.71365 0 0 0
6056 0 2 0.330982 0.87475 5.7497 2.9821 0 0 0
4620 0 2 0.330982 39.34624 6.367 19.78289 0 0 0
181 0 1 -0.661964 13.0531 1.12084 39.46096 0 0 0
182 0 2 0.330982 13.65792 1.75513 0.40987 0 0 0
183 0 2 0.330982 12.19495 1.57398 39.19429 0 0 0
966 0 2 0.330982 9.17433 6.61755 2.79019 0 0 0
1363 0 1 -0.661964 7.65852 6.52027 38.36545 0 0 0
1364 0 2 0.330982 7.93321 6.68992 37.38885 0 0 0
2224 0 1 -0.661964 15.54552 38.74304 15.43866 0 1 0
1777 0 1 -0.661964 10.24646 2.12066 39.11983 0 0 0
1778 0 2 0.330982 9.85548 2.05285 0.53435 0 0 0
1779 0 2 0.330982 9.63776 1.60953 38.48267 0 0 0
2377 0 1 -0.661964 8.25717 5.19163 1.62145 0 0 0
2378 0 2 0.330982 7.45681 4.65173 1.75671 0 0 0
2379 0 2 0.330982 8.12709 5.62429 0.76608 0 0 0
2678 0 2 0.330982 11.9047 0.69886 4.22447 0 0 0
2930 0 2 0.330982 6.13433 1.46738 5.06458 0 0 0
3757 0 1 -0.661964 8.83571 1.86172 2.54817 0 0 0
3758 0 2 0.330982 8.70629 0.87044 2.49814 0 0 0
3759 0 2 0.330982 8.41544 2.06792 3.37528 0 0 0
4060 0 1 -0.661964 7.01126 38.81298 0.97888 0 0 0
4165 0 1 -0.661964 5.79473 5.56041 4.53418 0 0 0
4801 0 1 -0.661964 6.44694 3.27323 1.63037 0 0 0
3622 0 1 -0.661964 16.42509 21.70505 18.02398 0 0 0
4758 0 2 0.330982 5.22268 38.93101 16.3561 0 1 0
4873 0 1 -0.661964 11.82996 2.51763 4.65804 0 0 0
4874 0 2 0.330982 11.6369 2.66779 5.56726 0 0 0
4875 0 2 0.330982 12.61143 3.0309 4.52611 0 0 0
5587 0 1 -0.661964 10.49797 4.10219 2.3354 0 0 0
5588 0 2 0.330982 9.72943 4.40551 1.81367 0 0 0
5589 0 2 0.330982 10.21472 3.30247 2.77419 0 0 0
963 0 2 0.330982 14.18931 6.3423 0.3883 0 0 0
1190 0 2 0.330982 19.03461 3.20924 7.26419 0 0 0
1191 0 2 0.330982 17.57643 2.98409 6.87128 0 0 0
441 0 2 0.330982 39.45675 17.78231 10.99749 0 0 0
1571 0 2 0.330982 15.00983 1.88214 5.47264 0 0 0
1651 0 1 -0.661964 18.64708 5.3228 3.06167 0 0 0
1652 0 2 0.330982 19.12013 4.45102 2.85982 0 0 0
1653 0 2 0.330982 19.08059 5.69806 3.86003 0 0 0
2133 0 2 0.330982 16.94406 39.05241 4.24929 0 0 0
4062 0 2 0.330982 7.56482 38.27513 0.43048 0 1 0
2235 0 2 0.330982 16.99449 4.63806 37.69722 0 0 0
2491 0 1 -0.661964 14.32188 3.66285 5.31823 0 0 0
2492 0 2 0.330982 15.09153 3.92845 4.80541 0 0 0
2493 0 2 0.330982 14.3784 4.3137 6.02913 0 0 0
3061 0 1 -0.661964 15.04702 3.35912 0.37504 0 0 0
2756 0 2 0.330982 21.67446 5.82691 8.76913 0 0 0
3063 0 2 0.330982 15.54349 3.4953 1.18765 0 0 0
5035 0 1 -0.661964 16.35487 3.45408 3.26688 0 0 0
5036 0 2 0.330982 16.70319 2.58219 3.40032 0 0 0
5037 0 2 0.330982 17.08389 4.07256 3.18681 0 0 0
5245 0 1 -0.661964 12.16718 5.86526 3.77366 0 0 0
5246 0 2 0.330982 11.68929 5.28488 3.18054 0 0 0
5247 0 2 0.330982 11.45359 6.52656 3.81989 0 0 0
764 0 2 0.330982 19.30645 13.93684 38.17868 0 0 0
5629 0 1 -0.661964 20.01126 2.98674 2.49146 0 0 0
5630 0 2 0.330982 20.81642 2.84232 2.96104 0 0 0
5631 0 2 0.330982 20.10289 3.1684 1.55243 0 0 0
2423 0 2 0.330982 17.01687 19.85007 14.34321 0 0 0
6068 0 2 0.330982 18.03738 5.98444 1.58743 0 0 0
1733 0 2 0.330982 11.04311 38.66452 16.93172 0 1 0
229 0 1 -0.661964 6.40655 11.64715 0.81116 0 0 0
230 0 2 0.330982 6.91274 12.13254 0.1742 0 0 0
231 0 2 0.330982 6.69637 10.73112 0.64241 0 0 0
841 0 1 -0.661964 1.85381 7.66358 2.44626 0 0 0
842 0 2 0.330982 1.29982 8.29934 2.99045 0 0 0
843 0 2 0.330982 1.55014 7.87968 1.53062 0 0 0
1489 0 1 -0.661964 3.95063 9.00447 0.69085 0 0 0
1490 0 2 0.330982 3.18965 9.37394 0.19526 0 0 0
1491 0 2 0.330982 4.32191 9.836 1.01829 0 0 0
2293 0 1 -0.661964 6.83003 8.48651 3.41409 0 0 0
2294 0 2 0.330982 5.87592 8.61992 3.60242 0 0 0
2295 0 2 0.330982 7.13947 9.30548 3.73979 0 0 0
2425 0 1 -0.661964 7.12494 8.80038 0.5451 0 0 0
2426 0 2 0.330982 8.01464 9.21102 0.43977 0 0 0
2427 0 2 0.330982 7.01379 8.52154 1.50215 0 0 0
2885 0 2 0.330982 2.45417 9.81016 3.77001 0 0 0
3625 0 1 -0.661964 2.03076 7.37171 39.0308 0 0 0
3627 0 2 0.330982 2.99156 7.05303 38.88354 0 0 0
3769 0 1 -0.661964 4.24766 8.75037 3.98451 0 0 0
3770 0 2 0.330982 3.61421 8.23136 3.4984 0 0 0
3771 0 2 0.330982 4.02481 8.66193 4.93044 0 0 0
4522 0 1 -0.661964 2.06578 13.15969 0.16178 0 0 0
4524 0 2 0.330982 2.87882 12.79841 39.16695 0 0 0
6066 0 2 0.330982 14.7517 21.66789 17.94671 0 0 0
4969 0 1 -0.661964 39.02811 10.22957 2.13092 0 0 0
4970 0 2 0.330982 39.3883 10.6258 1.32549 0 0 0
4971 0 2 0.330982 0.15907 10.2656 2.94307 0 0 0
374 0 2 0.330982 13.83965 9.89382 5.46871 0 0 0
964 0 1 -0.661964 9.72743 7.23021 3.27303 0 0 0
965 0 2 0.330982 9.46655 7.41708 4.18397 0 0 0
5955 0 2 0.330982 10.64062 37.96538 9.34566 0 0 0
2082 0 2 0.330982 15.85083 18.8401 19.09663 0 0 0
2863 0 1 -0.661964 10.79494 9.89688 2.92176 0 0 0
2864 0 2 0.330982 10.50476 8.96205 2.93974 0 0 0
2865 0 2 0.330982 11.74225 9.8875 3.04549 0 0 0
3616 0 1 -0.661964 9.21056 10.79514 4.92814 0 0 0
3617 0 2 0.330982 9.89724 10.78733 5.6522 0 0 0
3618 0 2 0.330982 9.70908 10.43609 4.11516 0 0 0
4038 0 2 0.330982 12.32247 10.41756 7.03132 0 0 0
4166 0 2 0.330982 6.27809 6.29967 4.07559 0 0 0
4459 0 1 -0.661964 12.5462 11.47853 39.26292 0 0 0
4460 0 2 0.330982 12.80346 11.78261 38.40845 0 0 0
4461 0 2 0.330982 11.66386 11.91947 0.04407 0 0 0
4555 0 1 -0.661964 9.50741 10.58885 0.31759 0 0 0
473 0 2 0.330982 1.23804 1.155 8.05731 0 1 0
4557 0 2 0.330982 10.0539 10.11627 0.96003 0 0 0
4632 0 2 0.330982 10.11524 13.58372 2.63697 0 0 0
4951 0 1 -0.661964 6.52938 11.16395 5.3478 0 0 0
4952 0 2 0.330982 6.37245 10.33081 5.87185 0 0 0
4953 0 2 0.330982 7.50887 11.16308 5.25054 0 0 0
5131 0 1 -0.661964 13.57796 9.53919 3.45492 0 0 0
5132 0 2 0.330982 14.12044 10.00482 2.76476 0 0 0
373 0 1 -0.661964 14.28075 10.36326 6.15341 0 0 0
375 0 2 0.330982 14.48926 9.59953 6.76267 0 0 0
3947 0 2 0.330982 18.69355 13.5675 13.45832 0 0 0
910 0 1 -0.661964 16.991 7.2793 5.75327 0 0 0
911 0 2 0.330982 16.43338 6.94421 5.06564 0 0 0
912 0 2 0.330982 17.85466 6.85893 5.75941 0 0 0
1147 0 1 -0.661964 15.50855 12.60517 4.64273 0 0 0
1148 0 2 0.330982 15.16352 11.86121 5.17837 0 0 0
1149 0 2 0.330982 16.44475 12.29459 4.56689 0 0 0
1267 0 1 -0.661964 17.54783 9.10646 0.57266 0 0 0
1268 0 2 0.330982 16.63067 9.19085 0.71473 0 0 0
1269 0 2 0.330982 17.79719 8.16808 0.49872 0 0 0
1963 0 1 -0.661964 17.64131 10.34979 5.54151 0 0 0
1964 0 2 0.330982 17.21077 9.47986 5.60535 0 0 0
1965 0 2 0.330982 18.17033 10.32936 4.71592 0 0 0
3139 0 1 -0.661964 14.90418 6.9204 3.58653 0 0 0
3140 0 2 0.330982 14.97102 6.68259 2.63396 0 0 0
3141 0 2 0.330982 14.17421 6.38764 3.93727 0 0 0
4965 0 2 0.330982 17.89941 11.6211 6.79353 0 0 0
5133 0 2 0.330982 14.00053 8.66946 3.35839 0 0 0
6024 0 2 0.330982 17.13085 18.72051 16.49939 0 0 0
6023 0 2 0.330982 17.12765 20.28674 16.82652 0 0 0
5950 0 1 -0.661964 19.70603 6.58403 5.67024 0 0 0
1365 0 2 0.330982 7.23031 7.37206 38.56137 0 0 0
6136 0 1 -0.661964 15.60396 8.27855 7.83817 0 0 0
6138 0 2 0.330982 16.08094 7.70173 7.24284 0 0 0
553 0 1 -0.661964 3.32677 14.19117 2.51261 0 0 0
554 0 2 0.330982 2.77991 14.78391 3.04031 0 0 0
555 0 2 0.330982 4.0141 13.76738 3.00849 0 0 0
4739 0 2 0.330982 17.04945 17.64645 13.13464 0 0 0
945 0 2 0.330982 2.48118 18.79152 3.39332 0 0 0
2019 0 2 0.330982 0.51145 16.22335 5.14011 0 0 0
2023 0 1 -0.661964 7.2205 16.05116 6.28448 0 0 0
2024 0 2 0.330982 7.96161 16.05849 5.60885 0 0 0
2025 0 2 0.330982 6.45327 16.47446 5.86323 0 0 0
2226 0 2 0.330982 16.5148 38.80647 15.43366 0 0 0
706 0 1 -0.661964 2.28883 19.6331 16.37892 0 0 0
2569 0 1 -0.661964 4.11644 16.06972 0.76426 0 0 0
2570 0 2 0.330982 3.7336 15.2901 1.18442 0 0 0
2571 0 2 0.330982 3.48564 16.79204 0.73526 0 0 0
2833 0 1 -0.661964 3.25856 18.52616 1.95412 0 0 0
2834 0 2 0.330982 4.20378 18.33403 2.1298 0 0 0
2835 0 2 0.330982 3.10689 19.21337 1.34428 0 0 0
2131 0 1 -0.661964 17.83068 39.40425 4.32475 0 1 0
2840 0 2 0.330982 5.57349 15.42724 1.89829 0 0 0
2911 0 1 -0.661964 2.01315 15.91806 4.12165 0 0 0
2912 0 2 0.330982 2.20156 16.90896 4.18536 0 0 0
2913 0 2 0.330982 2.52144 15.58843 4.90353 0 0 0
3073 0 1 -0.661964 39.42732 17.27751 1.73456 0 0 0
3074 0 2 0.330982 39.14953 17.69685 2.52532 0 0 0
2081 0 2 0.330982 16.73736 17.63981 18.6401 0 0 0
3478 0 1 -0.661964 6.0203 13.56081 6.80999 0 0 0
3479 0 2 0.330982 6.64244 12.76835 6.69009 0 0 0
3480 0 2 0.330982 6.39774 14.40771 6.52401 0 0 0
4204 0 1 -0.661964 5.4147 12.54251 3.14703 0 0 0
4205 0 2 0.330982 5.64132 12.09415 2.31025 0 0 0
4523 0 2 0.330982 2.33743 13.25549 1.09757 0 0 0
357 0 2 0.330982 6.40882 19.67062 2.73304 0 0 0
1195 0 1 -0.661964 14.18298 19.71899 2.57245 0 0 0
1309 0 1 -0.661964 11.26578 15.99474 6.58531 0 0 0
1310 0 2 0.330982 10.50845 16.08112 5.99961 0 0 0
1311 0 2 0.330982 11.03708 16.45545 7.34727 0 0 0
1687 0 1 -0.661964 12.08654 17.97496 2.63896 0 0 0
1688 0 2 0.330982 11.1967 18.08929 2.92905 0 0 0
1689 0 2 0.330982 12.54988 17.82277 3.48089 0 0 0
2683 0 1 -0.661964 9.36654 16.15982 4.53493 0 0 0
2684 0 2 0.330982 9.74606 15.33605 4.13042 0 0 0
2685 0 2 0.330982 9.65328 16.95245 4.03878 0 0 0
2812 0 1 -0.661964 13.82279 12.72046 1.92719 0 0 0
2814 0 2 0.330982 13.3209 12.07502 1.40124 0 0 0
2887 0 1 -0.661964 5.77624 17.88649 2.93392 0 0 0
2888 0 2 0.330982 5.1666 17.79029 3.75755 0 0 0
2889 0 2 0.330982 6.08825 17.022 2.71525 0 0 0
4003 0 1 -0.661964 10.01712 15.43632 38.39076 0 0 0
4004 0 2 0.330982 9.66096 15.96592 39.08656 0 0 0
4440 0 2 0.330982 9.82942 19.8799 17.96965 0 0 0
4206 0 2 0.330982 5.76671 12.03488 3.89042 0 0 0
4630 0 1 -0.661964 10.27515 13.87084 3.56255 0 0 0
4631 0 2 0.330982 10.03958 13.02823 4.05445 0 0 0
2987 0 2 0.330982 4.9643 17.68425 19.70293 0 0 0
5515 0 1 -0.661964 13.48116 15.3746 1.87139 0 0 0
5516 0 2 0.330982 13.38619 14.44005 2.07878 0 0 0
5517 0 2 0.330982 12.72101 15.87902 2.1879 0 0 0
5986 0 1 -0.661964 13.1383 17.6979 5.23558 0 0 0
5988 0 2 0.330982 12.44124 17.24314 5.7473 0 0 0
1243 0 1 -0.661964 17.98038 18.42796 5.56551 0 0 0
1244 0 2 0.330982 18.14084 17.48854 5.39981 0 0 0
1245 0 2 0.330982 17.43971 18.53644 6.37691 0 0 0
1366 0 1 -0.661964 19.10166 13.58842 2.0446 0 0 0
1367 0 2 0.330982 19.39925 13.05401 1.33733 0 0 0
1368 0 2 0.330982 19.16933 13.0489 2.8063 0 0 0
5658 0 2 0.330982 4.03783 0.87642 13.21313 0 1 0
2132 0 2 0.330982 18.23559 0.09754 3.47917 0 1 0
2326 0 1 -0.661964 17.6116 15.85422 3.74992 0 0 0
2327 0 2 0.330982 16.99684 15.61518 4.40778 0 0 0
2328 0 2 0.330982 18.35888 15.23894 3.90633 0 0 0
2813 0 2 0.330982 14.24764 12.28805 2.67769 0 0 0
2956 0 1 -0.661964 15.18808 15.7445 5.33079 0 0 0
2957 0 2 0.330982 15.56001 15.87494 6.22271 0 0 0
2958 0 2 0.330982 15.06179 14.7841 5.40105 0 0 0
3103 0 1 -0.661964 15.91697 16.47324 1.76824 0 0 0
3104 0 2 0.330982 15.05404 15.98972 1.881 0 0 0
3357 0 2 0.330982 17.48547 17.67523 38.34956 0 0 1
4438 0 1 -0.661964 10.55899 19.5382 17.50204 0 0 0
3719 0 2 0.330982 21.23207 17.88665 4.19641 0 0 0
4948 0 1 -0.661964 2.08449 38.06756 16.73706 0 1 0
5062 0 1 -0.661964 19.55506 16.48393 1.32937 0 0 0
5063 0 2 0.330982 19.92144 16.89915 2.10063 0 0 0
5064 0 2 0.330982 19.05851 15.71754 1.67752 0 0 0
5987 0 2 0.330982 13.86366 17.07911 5.23031 0 0 0
1196 0 2 0.330982 13.36931 19.14442 2.48763 0 0 0
1180 0 1 -0.661964 4.6376 0.94574 7.85972 0 0 0
1181 0 2 0.330982 4.54658 0.60137 8.72822 0 0 0
1182 0 2 0.330982 3.90244 1.57206 7.6815 0 0 0
1837 0 1 -0.661964 5.04351 4.3342 6.88899 0 0 0
1838 0 2 0.330982 5.19743 5.1715 6.45114 0 0 0
1839 0 2 0.330982 4.67461 4.50097 7.80556 0 0 0
1984 0 1 -0.661964 1.66205 3.17995 10.74829 0 0 0
1985 0 2 0.330982 1.74624 2.2559 10.93793 0 0 0
1986 0 2 0.330982 0.78588 3.19301 10.30518 0 0 0
1998 0 2 0.330982 7.24458 4.36327 7.9977 0 0 0
2353 0 1 -0.661964 1.176 5.57978 6.21299 0 0 0
2354 0 2 0.330982 1.68729 5.41718 7.05582 0 0 0
2355 0 2 0.330982 0.64171 4.76389 6.18208 0 0 0
2524 0 1 -0.661964 3.8782 4.04876 9.42031 0 0 0
2525 0 2 0.330982 3.07503 3.65684 9.71612 0 0 0
2526 0 2 0.330982 4.64979 3.81894 9.92284 0 0 0
2787 0 2 0.330982 0.97652 7.44579 6.1771 0 0 0
2860 0 1 -0.661964 7.05494 2.30019 8.28423 0 0 0
2861 0 2 0.330982 7.09205 2.4427 9.24985 0 0 0
2862 0 2 0.330982 6.15693 1.8361 8.13668 0 0 0
3397 0 1 -0.661964 2.80367 4.72306 12.74366 0 0 0
3450 0 2 0.330982 8.32347 1.90333 7.48797 0 0 0
668 0 2 0.330982 19.30029 19.16477 9.17236 0 0 0
3723 0 2 0.330982 38.14287 2.9397 9.12654 0 0 0
4754 0 2 0.330982 2.40391 4.98113 4.67363 0 0 0
840 0 2 0.330982 19.94106 16.02259 14.14467 0 0 0
961 0 1 -0.661964 14.92848 6.75436 0.92342 0 0 1
3191 0 2 0.330982 19.99384 14.80517 17.14786 0 0 0
424 0 1 -0.661964 11.7448 3.2249 7.64462 0 0 0
425 0 2 0.330982 12.0344 4.12065 7.48287 0 0 0
426 0 2 0.330982 12.5003 2.75935 8.09466 0 0 0
1659 0 2 0.330982 7.083 6.35417 9.37459 0 0 0
1864 0 1 -0.661964 10.11509 1.48686 11.02627 0 0 0
1865 0 2 0.330982 9.67373 2.33843 10.82594 0 0 0
1866 0 2 0.330982 9.59662 0.68441 10.80184 0 0 0
1924 0 1 -0.661964 10.08274 3.99828 9.87994 0 0 0
1925 0 2 0.330982 10.71114 3.8209 9.14509 0 0 0
1926 0 2 0.330982 10.33306 4.82498 10.34136 0 0 0
1996 0 1 -0.661964 7.74932 5.1822 8.20859 0 0 0
1997 0 2 0.330982 8.56168 4.91431 8.64718 0 0 0
2272 0 1 -0.661964 13.28645 4.09027 13.20649 0 0 0
2273 0 2 0.330982 12.52546 4.13188 13.80789 0 0 0
2274 0 2 0.330982 14.01139 4.19164 13.81639 0 0 0
2391 0 2 0.330982 8.43266 6.63836 6.62477 0 0 0
2931 0 2 0.330982 6.10174 0.4644 4.00644 0 0 0
3412 0 1 -0.661964 12.89464 1.43734 11.63592 0 0 0
3413 0 2 0.330982 11.9284 1.52937 11.40917 0 0 0
3414 0 2 0.330982 13.06074 2.27483 12.12072 0 0 0
3448 0 1 -0.661964 9.16294 1.81797 6.88809 0 0 0
3449 0 2 0.330982 9.89365 2.20546 7.3898 0 0 0
4010 0 2 0.330982 5.82379 6.08292 13.08594 0 0 0
5152 0 1 -0.661964 7.38466 2.81435 4.83273 0 0 0
5153 0 2 0.330982 7.8677 2.83282 5.70365 0 0 0
5154 0 2 0.330982 6.82614 3.67258 4.83979 0 0 0
5791 0 1 -0.661964 10.48712 5.03381 13.84993 0 0 0
5953 0 1 -0.661964 11.5922 38.06879 9.17483 0 0 0
3166 0 1 -0.661964 13.42406 13.51114 19.82522 0 0 0
115 0 1 -0.661964 13.87464 2.2849 8.90319 0 0 0
116 0 2 0.330982 13.73406 1.92211 9.81002 0 0 0
117 0 2 0.330982 14.42356 1.77591 8.35027 0 0 0
594 0 2 0.330982 14.62919 3.50154 16.7594 0 0 0
786 0 2 0.330982 13.78726 5.81928 12.42213 0 0 0
1051 0 1 -0.661964 16.7404 4.80802 9.18626 0 0 0
1052 0 2 0.330982 17.24452 4.26891 8.52628 0 0 0
1053 0 2 0.330982 15.86712 4.969 8.82427 0 0 0
1189 0 1 -0.661964 18.19684 3.06731 7.62696 0 0 0
1549 0 1 -0.661964 11.60296 5.74177 6.70386 0 0 0
2587 0 1 -0.661964 18.87474 6.23097 10.12019 0 0 0
2588 0 2 0.330982 19.09317 5.66897 10.89914 0 0 0
2589 0 2 0.330982 18.00235 5.91501 9.8315 0 0 0
4490 0 2 0.330982 4.41667 17.6217 6.33681 0 0 0
2757 0 2 0.330982 20.1297 6.30271 8.73473 0 0 0
3495 0 2 0.330982 13.59288 6.68822 9.86737 0 0 0
3508 0 1 -0.661964 14.56514 5.12277 7.83162 0 0 0
3509 0 2 0.330982 13.87973 5.75425 8.1874 0 0 0
3510 0 2 0.330982 14.21086 4.29956 8.10638 0 0 0
3925 0 1 -0.661964 17.38019 2.95432 11.55607 0 0 0
3926 0 2 0.330982 17.56589 2.06412 11.18907 0 0 0
3927 0 2 0.330982 16.82135 3.37742 10.87452 0 0 0
4192 0 1 -0.661964 15.85332 38.4652 9.55281 0 0 0
4193 0 2 0.330982 15.67866 38.90107 10.43795 0 0 0
4194 0 2 0.330982 16.75319 38.14074 9.78044 0 0 0
5581 0 1 -0.661964 18.73102 0.28168 8.55867 0 0 0
5582 0 2 0.330982 18.63421 38.90038 8.12839 0 0 0
5583 0 2 0.330982 18.37056 0.90202 7.94558 0 0 0
6109 0 1 -0.661964 19.6694 4.49617 12.00372 0 0 0
6110 0 2 0.330982 19.43967 4.92034 12.82394 0 0 0
6111 0 2 0.330982 19.01325 3.78349 11.96442 0 0 0
233 0 2 0.330982 6.20273 12.27182 10.49835 0 0 0
234 0 2 0.330982 7.40416 12.23954 11.45054 0 0 0
460 0 1 -0.661964 4.40446 8.08936 9.74803 0 0 0
461 0 2 0.330982 4.49614 8.34751 10.67368 0 0 0
462 0 2 0.330982 5.22945 7.59034 9.61823 0 0 0
868 0 1 -0.661964 39.34818 9.8582 12.41002 0 0 0
869 0 2 0.330982 0.03876 10.28052 11.56963 0 0 0
2092 0 1 -0.661964 0.46722 11.01352 9.70283 0 0 0
2093 0 2 0.330982 1.41109 10.97509 9.50656 0 0 0
2094 0 2 0.330982 0.04499 11.74341 9.2383 0 0 0
2482 0 1 -0.661964 3.50064 8.91139 6.76771 0 0 0
2484 0 2 0.330982 2.99607 8.31052 7.24652 0 0 0
2506 0 1 -0.661964 3.73009 12.05957 6.32773 0 0 0
2507 0 2 0.330982 3.97076 11.18811 5.97476 0 0 0
2508 0 2 0.330982 4.57124 12.56103 6.27416 0 0 0
2785 0 1 -0.661964 0.63904 8.3756 6.10519 0 0 0
2786 0 2 0.330982 0.13083 8.45139 6.96098 0 0 0
2884 0 1 -0.661964 1.6605 10.01492 4.31486 0 0 0
2886 0 2 0.330982 1.46969 9.40156 5.11245 0 0 0
3002 0 2 0.330982 2.67885 7.10551 9.3852 0 0 0
3802 0 1 -0.661964 4.04572 9.0526 12.50284 0 0 0
3803 0 2 0.330982 3.15165 8.94171 12.88499 0 0 0
3804 0 2 0.330982 4.09467 10.01235 12.43565 0 0 0
4228 0 1 -0.661964 3.32439 11.12097 9.08983 0 0 0
4229 0 2 0.330982 3.74957 10.2461 9.16016 0 0 0
4230 0 2 0.330982 3.38695 11.33759 8.12217 0 0 0
4231 0 1 -0.661964 38.97369 8.21974 8.70106 0 0 0
4233 0 2 0.330982 39.42583 9.01481 9.05104 0 0 0
4350 0 2 0.330982 0.77496 8.29796 13.15566 0 0 0
6035 0 2 0.330982 4.00928 12.32336 12.07745 0 0 0
6036 0 2 0.330982 3.77763 11.73616 10.73267 0 0 0
6082 0 1 -0.661964 0.95577 13.50703 12.27262 0 0 0
6083 0 2 0.330982 1.44972 12.69558 12.57595 0 0 0
6084 0 2 0.330982 0.85239 13.44245 11.31375 0 0 0
232 0 1 -0.661964 7.18205 12.16187 10.49039 0 0 0
1551 0 2 0.330982 11.5472 5.58252 5.7822 0 0 0
1657 0 1 -0.661964 6.85232 7.13949 9.93013 0 0 0
1658 0 2 0.330982 7.51824 7.86472 9.77206 0 0 0
2365 0 1 -0.661964 8.00198 9.59898 9.08437 0 0 0
2366 0 2 0.330982 7.67293 10.47437 9.37066 0 0 0
2367 0 2 0.330982 8.99325 9.63203 9.03996 0 0 0
2389 0 1 -0.661964 8.6751 7.42232 6.12461 0 0 0
2390 0 2 0.330982 9.24312 7.89567 6.77494 0 0 0
2483 0 2 0.330982 4.43757 8.65829 6.95885 0 0 0
2764 0 1 -0.661964 10.85725 10.05348 10.55791 0 0 0
2765 0 2 0.330982 11.65094 9.50423 10.33645 0 0 0
2766 0 2 0.330982 11.21229 10.5962 11.27304 0 0 0
3364 0 1 -0.661964 10.60226 8.2227 8.15414 0 0 0
3365 0 2 0.330982 11.38648 7.66471 8.48047 0 0 0
3366 0 2 0.330982 10.88447 9.11444 7.99149 0 0 0
3419 0 2 0.330982 8.35833 13.28249 9.75914 0 0 0
3420 0 2 0.330982 9.47467 14.3382 10.37581 0 0 0
4036 0 1 -0.661964 11.3843 10.45106 7.31186 0 0 0
4037 0 2 0.330982 11.13781 11.43489 7.44103 0 0 0
4504 0 1 -0.661964 6.27315 8.88232 6.80284 0 0 0
4505 0 2 0.330982 6.93837 8.9835 7.50073 0 0 0
4506 0 2 0.330982 6.60969 8.24346 6.14264 0 0 0
4804 0 1 -0.661964 11.00754 6.255 11.38233 0 0 0
4805 0 2 0.330982 11.89149 6.61929 11.68169 0 0 0
4806 0 2 0.330982 10.2758 6.91598 11.385 0 0 0
5669 0 2 0.330982 6.49258 7.43758 11.70557 0 0 0
378 0 2 0.330982 19.64044 11.25063 10.10472 0 0 0
733 0 1 -0.661964 14.96549 10.96217 13.48782 0 0 0
734 0 2 0.330982 14.00428 11.09518 13.31938 0 0 0
735 0 2 0.330982 15.05163 10.49657 14.30085 0 0 0
784 0 1 -0.661964 13.70048 6.60192 11.83202 0 0 0
785 0 2 0.330982 14.48464 7.18203 12.0446 0 0 0
1502 0 2 0.330982 13.61651 8.17338 13.9783 0 0 0
1550 0 2 0.330982 10.69984 6.12955 6.78923 0 0 0
1714 0 1 -0.661964 12.73128 13.2151 9.99633 0 0 0
1832 0 2 0.330982 19.83268 13.36048 8.26708 0 0 0
2104 0 1 -0.661964 21.35768 11.13425 10.54464 0 0 0
6022 0 1 -0.661964 17.50918 19.62911 16.24159 0 0 0
2106 0 2 0.330982 21.35693 10.22229 10.21977 0 0 0
2472 0 2 0.330982 17.59782 14.89131 10.95388 0 0 0
3070 0 1 -0.661964 14.65321 12.6622 8.13841 0 0 0
3071 0 2 0.330982 14.46741 11.96869 7.52987 0 0 0
3072 0 2 0.330982 13.84776 12.85167 8.6607 0 0 0
3493 0 1 -0.661964 13.35207 7.19053 9.08021 0 0 0
3494 0 2 0.330982 14.09403 7.72049 8.8429 0 0 0
3589 0 1 -0.661964 17.82333 8.62933 9.58742 0 0 0
3590 0 2 0.330982 18.36465 9.42689 9.69251 0 0 0
3591 0 2 0.330982 18.2894 7.84622 9.87575 0 0 0
4385 0 2 0.330982 16.25477 11.86891 12.96895 0 0 0
4963 0 1 -0.661964 18.25222 12.23643 7.38423 0 0 0
5870 0 2 0.330982 15.56879 9.69191 12.34441 0 0 0
6137 0 2 0.330982 16.37456 8.42789 8.43992 0 0 0
439 0 1 -0.661964 38.55724 17.54649 10.71483 0 0 0
3731 0 2 0.330982 37.98864 8.7089 17.56259 0 0 0
474 0 2 0.330982 1.60436 2.00433 6.81469 0 0 0
511 0 1 -0.661964 3.62646 17.0276 7.73007 0 0 0
512 0 2 0.330982 3.98503 16.40631 8.38493 0 0 0
513 0 2 0.330982 3.07425 17.68702 8.15625 0 0 0
3730 0 1 -0.661964 37.93939 8.86695 16.62463 0 0 0
2788 0 1 -0.661964 6.88525 38.63765 13.90971 0 1 0
1641 0 2 0.330982 2.43686 19.69948 7.67982 0 0 0
2719 0 1 -0.661964 4.29527 14.56251 8.80202 0 0 0
2720 0 2 0.330982 5.01943 14.5065 9.49801 0 0 0
2721 0 2 0.330982 4.72695 14.07365 8.10083 0 0 0
3851 0 2 0.330982 6.277 18.18538 11.01069 0 0 0
3940 0 1 -0.661964 1.50461 14.05996 9.53318 0 0 0
3941 0 2 0.330982 2.34652 14.00521 9.0803 0 0 0
3942 0 2 0.330982 0.95059 14.6372 9.01423 0 0 0
4366 0 1 -0.661964 1.45893 18.58568 11.06875 0 0 0
4367 0 2 0.330982 1.90066 18.87809 10.25463 0 0 0
4368 0 2 0.330982 1.61618 19.31588 11.75368 0 0 0
5374 0 1 -0.661964 6.43836 14.9815 10.49266 0 0 0
5422 0 1 -0.661964 5.38887 18.14571 12.75792 0 0 0
5423 0 2 0.330982 4.58568 18.22175 13.28814 0 0 0
5424 0 2 0.330982 5.52853 17.18959 12.87122 0 0 0
5698 0 1 -0.661964 5.0283 15.54707 12.79988 0 0 0
5699 0 2 0.330982 5.57664 15.23772 12.0208 0 0 0
5700 0 2 0.330982 4.19478 15.69938 12.27691 0 0 0
6034 0 1 -0.661964 4.48149 11.93512 11.31717 0 0 0
751 0 1 -0.661964 9.52301 17.24628 11.14173 0 0 0
752 0 2 0.330982 8.56202 17.23535 10.93015 0 0 0
753 0 2 0.330982 9.63003 18.0103 11.70333 0 0 0
1715 0 2 0.330982 11.83836 13.48075 10.02275 0 0 0
3418 0 1 -0.661964 8.93127 14.09251 9.60374 0 0 0
3850 0 1 -0.661964 6.74384 17.53861 10.45543 0 0 0
3852 0 2 0.330982 6.92931 18.00735 9.54727 0 0 0
4099 0 1 -0.661964 10.7995 14.74378 11.37638 0 0 0
4100 0 2 0.330982 11.06479 14.24584 12.23767 0 0 0
4101 0 2 0.330982 10.61536 15.65487 11.64755 0 0 0
4174 0 1 -0.661964 6.9813 18.58134 7.87752 0 0 0
4175 0 2 0.330982 7.83018 18.48031 7.42069 0 0 0
4423 0 1 -0.661964 11.09891 17.83219 8.6746 0 0 0
4424 0 2 0.330982 11.98577 17.58143 8.89167 0 0 0
4425 0 2 0.330982 10.50533 17.79495 9.3593 0 0 0
4825 0 1 -0.661964 9.41344 19.40241 6.51416 0 0 0
4826 0 2 0.330982 10.10045 18.95929 7.02298 0 0 0
4827 0 2 0.330982 9.57384 19.21178 5.57741 0 0 0
5038 0 1 -0.661964 12.4342 11.65777 12.28033 0 0 0
5040 0 2 0.330982 12.67496 12.18377 11.56202 0 0 0
5375 0 2 0.330982 7.28107 14.48002 10.61963 0 0 0
5376 0 2 0.330982 6.63551 15.90153 10.39328 0 0 0
5743 0 1 -0.661964 10.35189 13.09083 7.42006 0 0 0
5744 0 2 0.330982 10.93074 13.75 7.04099 0 0 0
5745 0 2 0.330982 9.98584 13.64211 8.16117 0 0 0
376 0 1 -0.661964 18.7381 11.03103 9.95179 0 0 0
377 0 2 0.330982 18.58741 11.47964 9.10447 0 0 0
667 0 1 -0.661964 19.41223 18.28484 9.6612 0 0 0
669 0 2 0.330982 19.20335 18.47207 10.55855 0 0 0
856 0 1 -0.661964 20.00922 18.73527 12.4172 0 0 0
1508 0 2 0.330982 14.6292 18.55551 11.85402 0 0 0
1507 0 1 -0.661964 14.15171 17.93219 12.47174 0 0 0
4198 0 1 -0.661964 16.80451 16.97766 16.29162 0 0 0
1531 0 1 -0.661964 13.60471 20.6271 7.66219 0 0 0
1716 0 2 0.330982 13.19962 14.0437 10.16846 0 0 0
1966 0 1 -0.661964 13.97211 16.37661 14.69904 0 0 0
1967 0 2 0.330982 14.50104 16.74074 13.98463 0 0 0
1968 0 2 0.330982 13.06047 16.39977 14.52555 0 0 0
2422 0 1 -0.661964 16.79586 19.64607 13.39402 0 0 0
2424 0 2 0.330982 15.90406 20.01747 13.42706 0 0 0
2470 0 1 -0.661964 16.87191 14.77098 11.57985 0 0 0
2471 0 2 0.330982 16.85441 13.88922 11.79223 0 0 0
3325 0 1 -0.661964 16.67445 14.67049 7.59442 0 0 0
3326 0 2 0.330982 15.9117 14.13798 7.92923 0 0 0
3327 0 2 0.330982 17.2414 14.72239 8.36557 0 0 0
3910 0 1 -0.661964 13.87952 17.08727 8.91185 0 0 0
3911 0 2 0.330982 14.29696 16.59244 9.62791 0 0 0
3912 0 2 0.330982 14.39505 17.85397 8.62957 0 0 0
4078 0 1 -0.661964 18.63871 15.75353 9.39816 0 0 0
4080 0 2 0.330982 19.46024 15.41192 9.15757 0 0 0
4405 0 1 -0.661964 16.29104 19.33967 7.50579 0 0 0
4406 0 2 0.330982 16.85546 19.637 8.23859 0 0 0
4407 0 2 0.330982 15.42859 19.63954 7.59843 0 0 0
4964 0 2 0.330982 17.6328 13.03996 7.34952 0 0 0
6115 0 1 -0.661964 14.28919 15.20475 11.01306 0 0 0
6116 0 2 0.330982 14.20195 16.03988 11.5076 0 0 0
6117 0 2 0.330982 15.23672 15.0298 11.13158 0 0 0
366 0 2 0.330982 0.87055 7.02422 16.62794 0 0 0
388 0 1 -0.661964 5.89769 2.71885 11.1074 0 0 0
389 0 2 0.330982 5.57261 2.01871 11.69226 0 0 0
820 0 1 -0.661964 6.04441 1.08963 16.58258 0 0 0
821 0 2 0.330982 5.53916 1.87357 16.33496 0 0 0
1165 0 1 -0.661964 0.35139 3.35522 14.14137 0 0 0
1166 0 2 0.330982 39.2788 4.09365 13.87182 0 0 0
1167 0 2 0.330982 0.17146 3.13389 15.02865 0 0 0
2209 0 1 -0.661964 4.17894 9.43248 17.47163 0 0 0
2211 0 2 0.330982 4.03194 9.09163 18.40909 0 0 0
2428 0 1 -0.661964 3.31044 6.06335 15.21913 0 0 0
2429 0 2 0.330982 2.43837 6.03928 15.64966 0 0 0
2430 0 2 0.330982 3.06583 6.2337 14.34717 0 0 0
922 0 1 -0.661964 0.66265 16.99589 14.12886 0 0 0
3399 0 2 0.330982 2.45623 4.41593 11.88945 0 0 0
4619 0 2 0.330982 39.42323 7.97123 19.61748 0 0 0
5092 0 1 -0.661964 2.19408 0.88386 13.86643 0 0 0
5093 0 2 0.330982 1.84481 0.13341 14.40664 0 0 0
5113 0 1 -0.661964 1.30527 0.25032 9.83509 0 0 0
5115 0 2 0.330982 0.5487 39.12553 10.02695 0 0 0
5236 0 1 -0.661964 4.07122 2.70961 15.28173 0 0 0
5237 0 2 0.330982 3.95186 3.6314 15.06506 0 0 0
5238 0 2 0.330982 3.57711 2.50135 16.08462 0 0 0
5785 0 1 -0.661964 0.28535 2.23249 16.64981 0 0 0
5786 0 2 0.330982 39.33781 1.34363 16.54818 0 0 0
5787 0 2 0.330982 0.13382 2.53009 17.56133 0 0 0
390 0 2 0.330982 6.29986 3.25607 11.73251 0 0 0
870 0 2 0.330982 38.45171 9.52919 12.30221 1 0 0
822 0 2 0.330982 6.9651 1.37853 16.45712 0 0 0
5952 0 2 0.330982 20.14888 6.13389 6.37333 0 0 0
1037 0 2 0.330982 7.70323 1.84433 18.88609 0 0 0
4950 0 2 0.330982 1.74411 37.79331 15.87269 0 1 0
1825 0 1 -0.661964 8.47603 1.62124 14.00623 0 0 0
1826 0 2 0.330982 8.24194 2.56848 14.21783 0 0 0
1827 0 2 0.330982 8.97576 1.72862 13.1747 0 0 0
2790 0 2 0.330982 7.55343 39.33903 14.03602 0 0 0
5869 0 1 -0.661964 15.83463 8.76447 12.18671 0 0 0
5951 0 2 0.330982 20.1788 7.39403 5.69047 0 0 0
3112 0 1 -0.661964 11.61179 5.3392 16.56724 0 0 0
3113 0 2 0.330982 11.197 4.71942 17.16346 0 0 0
3871 0 1 -0.661964 7.88457 4.16873 14.64157 0 0 0
3872 0 2 0.330982 7.91716 4.08285 15.61174 0 0 0
3873 0 2 0.330982 6.96272 4.37487 14.30878 0 0 0
4009 0 1 -0.661964 5.61642 5.19377 13.3163 0 0 0
4011 0 2 0.330982 4.7473 5.04248 12.92421 0 0 0
5087 0 2 0.330982 11.90585 6.47848 18.11352 0 0 0
5704 0 1 -0.661964 8.86336 0.85008 16.63316 0 0 0
5705 0 2 0.330982 9.62332 1.34019 16.94198 0 0 0
5706 0 2 0.330982 8.89115 0.91246 15.62687 0 0 0
5793 0 2 0.330982 9.55876 4.83555 13.97303 0 0 0
592 0 1 -0.661964 13.9444 3.53428 16.04648 0 0 0
593 0 2 0.330982 13.24592 4.06271 16.50179 0 0 0
1216 0 1 -0.661964 15.59745 5.82404 14.71048 0 0 0
1217 0 2 0.330982 15.24674 6.72739 14.79202 0 0 0
1218 0 2 0.330982 15.59163 5.46609 15.63448 0 0 0
1732 0 1 -0.661964 11.52806 39.31419 17.42418 0 0 0
1734 0 2 0.330982 12.1435 0.22741 16.73328 0 0 0
2056 0 1 -0.661964 11.93464 9.22509 16.62817 0 0 0
2057 0 2 0.330982 11.70457 10.11354 16.95565 0 0 0
2058 0 2 0.330982 12.19839 8.64156 17.36302 0 0 0
4738 0 1 -0.661964 17.05434 16.77233 13.5688 0 0 0
2520 0 2 0.330982 21.69803 4.19666 19.73809 0 0 0
3114 0 2 0.330982 11.01256 5.33664 15.78705 0 0 0
3280 0 1 -0.661964 13.23213 1.1046 15.26121 0 0 0
3281 0 2 0.330982 13.40406 2.01739 15.55192 0 0 0
3282 0 2 0.330982 14.14037 0.69952 15.19127 0 0 0
3640 0 1 -0.661964 18.99416 6.21349 17.31543 0 0 0
3641 0 2 0.330982 18.97063 7.07013 16.87039 0 0 0
3642 0 2 0.330982 19.08266 6.45309 18.26627 0 0 0
4432 0 1 -0.661964 17.81195 3.2501 14.28141 0 0 0
4433 0 2 0.330982 17.30465 3.94773 14.71116 0 0 0
4434 0 2 0.330982 17.35654 3.13596 13.42633 0 0 0
58 0 1 -0.661964 7.76641 11.01919 17.29233 0 0 0
59 0 2 0.330982 7.57972 10.50284 16.49879 0 0 0
60 0 2 0.330982 7.31895 11.86955 17.12933 0 0 0
364 0 1 -0.661964 0.78402 6.09179 16.47316 0 0 0
365 0 2 0.330982 0.53031 5.65283 17.26724 0 0 0
628 0 1 -0.661964 2.27052 11.24554 13.41095 0 0 0
629 0 2 0.330982 1.34883 11.00741 13.66205 0 0 0
630 0 2 0.330982 2.50214 11.85413 14.0744 0 0 0
1474 0 1 -0.661964 1.54603 8.86613 16.74845 0 0 0
1475 0 2 0.330982 1.1966 9.75383 16.8336 0 0 0
1476 0 2 0.330982 2.49078 8.94551 16.73171 0 0 0
2866 0 1 -0.661964 5.68651 7.47585 15.90019 0 0 0
2867 0 2 0.330982 4.99447 6.83556 15.68031 0 0 0
2868 0 2 0.330982 5.1895 8.22346 16.45958 0 0 0
3398 0 2 0.330982 2.1305 4.23624 13.289 0 0 0
3732 0 2 0.330982 37.05182 8.81719 16.30401 0 0 0
3892 0 1 -0.661964 38.64627 10.98805 14.67492 0 0 0
3893 0 2 0.330982 38.77672 10.64694 13.74994 0 0 0
2210 0 2 0.330982 4.52233 10.31606 17.57342 0 0 0
4348 0 1 -0.661964 1.45419 7.90783 13.74464 0 0 0
4349 0 2 0.330982 1.41453 8.39363 14.5536 0 0 0
3978 0 2 0.330982 17.72604 15.11666 17.57605 0 0 0
5518 0 1 -0.661964 3.91347 12.23128 18.2671 0 0 0