354
# CELL(abcABC):   20.00000    20.00000    20.00000    90.00000    90.00000    90.00000  Step:         500  Bead:       0 positions{angstrom}  cell{angstrom}
       C  5.67922e+00 -2.30123e+00  1.38442e+00
       O  6.30189e+00 -2.80416e+00  2.22775e+00
       O  5.06439e+00 -1.80536e+00  5.32445e-01
       C  4.11709e-01 -7.75527e+00  3.26780e-02
       O  9.32404e-01 -8.35020e+00 -8.19356e-01
       O -1.10079e-01 -7.14314e+00  8.70761e-01
       C  1.02155e+01  1.97672e+00  5.83031e+00
       O  9.74538e+00  2.85030e+00  5.22390e+00
       O  1.06710e+01  1.09999e+00  6.44059e+00
       C -6.68128e+00 -5.21944e+00  1.03256e+00
       O -7.11539e+00 -5.24118e+00  2.10864e+00
       O -6.24926e+00 -5.19348e+00 -4.70875e-02
       C  6.50045e-01  6.65265e+00  6.44431e+00
       O -2.15098e-01  6.16570e+00  7.04241e+00
       O  1.52606e+00  7.13721e+00  5.84910e+00
       C -7.82482e+00  6.45184e+00  6.22958e+00
       O -8.56660e+00  6.76556e+00  7.06220e+00
       O -7.07279e+00  6.13274e+00  5.40008e+00
       C -1.65507e+00  6.78491e+00  3.51451e+00
       O -2.34462e+00  7.61740e+00  3.08416e+00
       O -9.54933e-01  5.96496e+00  3.94484e+00
       C  3.18352e+00  1.10297e+00 -4.45223e+00
       O  4.03065e+00  1.12363e+00 -3.65844e+00
       O  2.33199e+00  1.06933e+00 -5.24432e+00
       C  8.50720e+00  5.78026e+00  2.78536e+00
       O  7.65719e+00  5.44520e+00  2.06321e+00
       O  9.35117e+00  6.10019e+00  3.51406e+00
       C  9.58989e+00 -4.40518e-01  2.57251e+00
       O  9.95433e+00 -9.63814e-02  3.62075e+00
       O  9.21108e+00 -7.74261e-01  1.52661e+00
       C  2.14522e+00 -7.56194e+00  2.99510e+00
       O  2.28730e+00 -8.45687e+00  2.26936e+00
       O  2.01830e+00 -6.65784e+00  3.71597e+00
       C -8.95042e+00 -5.70972e+00 -1.99794e+00
       O -8.75179e+00 -5.79342e+00 -3.13926e+00
       O -9.14223e+00 -5.61065e+00 -8.55467e-01
       C  3.30874e+00 -6.99547e+00 -2.14853e+00
       O  3.49496e+00 -6.49608e+00 -1.11637e+00
       O  3.10301e+00 -7.48357e+00 -3.18340e+00
       C  3.40530e+00  2.49185e+00  1.67481e+00
       O  3.66563e+00  2.31987e+00  2.79358e+00
       O  3.14099e+00  2.64733e+00  5.52731e-01
       C -6.20034e+00  1.99127e+00 -2.42166e+00
       O -6.00723e+00  1.77888e+00 -1.29357e+00
       O -6.39826e+00  2.21055e+00 -3.54290e+00
       C -1.17395e+00 -7.46728e+00 -6.79012e+00
       O -1.76682e+00 -6.46686e+00 -6.78407e+00
       O -5.67904e-01 -8.45726e+00 -6.80418e+00
       C -6.00705e+00  3.01215e+00  5.89509e+00
       O -7.01481e+00  3.24649e+00  6.42375e+00
       O -4.99794e+00  2.78571e+00  5.36830e+00
       C  2.16309e+00 -1.41872e-01  2.91834e-02
       O  1.87035e+00 -6.11194e-02  1.15197e+00
       O  2.45948e+00 -2.00083e-01 -1.09239e+00
       C -5.45975e+00 -5.77096e+00  4.49712e+00
       O -5.50151e+00 -6.91766e+00  4.32231e+00
       O -5.40685e+00 -4.62425e+00  4.68463e+00
       C  2.93151e+00  4.81863e+00  4.44350e+00
       O  1.90149e+00  4.68690e+00  3.92708e+00
       O  3.95776e+00  4.96122e+00  4.97336e+00
       C -8.22716e+00 -3.29327e+00  4.20886e+00
       O -7.88481e+00 -2.45062e+00  3.48260e+00
       O -8.56579e+00 -4.13368e+00  4.93316e+00
       C  1.52645e+00 -1.98484e+00 -4.73957e+00
       O  1.26064e+00 -1.47501e+00 -3.73007e+00
       O  1.80722e+00 -2.50953e+00 -5.73770e+00
       C  7.84826e+00  6.48936e+00 -8.14828e-01
       O  8.67809e+00  7.19789e+00 -4.24820e-01
       O  7.02039e+00  5.77686e+00 -1.22182e+00
       C -6.26268e+00 -1.53372e+00 -3.92265e+00
       O -5.95148e+00 -8.42610e-01 -3.04003e+00
       O -6.58321e+00 -2.21672e+00 -4.80260e+00
       C  8.58753e+00  4.74464e+00 -3.60273e+00
       O  7.74339e+00  4.16719e+00 -4.15080e+00
       O  9.41998e+00  5.32144e+00 -3.02976e+00
       C -4.20624e+00  1.73609e+00  9.73908e+00
       O -3.81935e+00  2.31798e+00  8.80926e+00
       O -4.59006e+00  1.16503e+00  1.06746e+01
       C -3.91650e+00  8.00464e+00  3.00034e-02
       O -4.38262e+00  7.00227e+00  3.91141e-01
       O -3.42763e+00  8.99603e+00 -3.22300e-01
       C  5.34889e+00  9.75620e+00 -1.05369e+00
       O  4.26166e+00  1.01611e+01 -1.02084e+00
       O  6.43908e+00  9.35074e+00 -1.08653e+00
       C  6.04418e+00 -1.93428e+00  6.85498e+00
       O  6.23075e+00 -1.67478e+00  7.97109e+00
       O  5.86210e+00 -2.18767e+00  5.73379e+00
       C  2.01726e+00 -5.76306e+00 -5.59873e+00
       O  9.11044e-01 -5.91705e+00 -5.27516e+00
       O  3.12144e+00 -5.61012e+00 -5.91994e+00
       C  1.23350e+00  5.40116e+00  3.12084e-01
       O  6.32018e-01  4.85754e+00 -5.18441e-01
       O  1.83473e+00  5.95043e+00  1.14125e+00
       C  8.67008e-01  2.38457e+00 -1.89072e+00
       O  1.70553e+00  2.85256e+00 -2.54344e+00
       O  3.28277e-02  1.90526e+00 -1.23705e+00
       C -3.05557e+00  2.45878e+00 -1.35923e+00
       O -2.94368e+00  2.73122e+00 -2.35076e-01
       O -3.19659e+00  2.19550e+00 -2.48135e+00
       C -1.27539e+00 -4.49922e+00  1.94540e+00
       O -1.12092e+00 -4.81938e+00  3.05121e+00
       O -1.43415e+00 -4.18438e+00  8.37365e-01
       C -9.00098e+00  8.23851e-01 -4.43800e-01
       O -9.37769e+00  1.60851e+00  3.27002e-01
       O -8.63395e+00  4.92585e-02 -1.22759e+00
       C -5.54310e+00  4.53986e+00 -3.92010e-01
       O -5.11751e+00  4.71136e+00 -1.46176e+00
       O -5.96875e+00  4.34669e+00  6.69845e-01
       C -6.37929e+00  1.07507e+01  7.26373e-01
       O -6.31060e+00  9.68628e+00  2.67302e-01
       O -6.44158e+00  1.18160e+01  1.18624e+00
       C  3.98758e+00  5.85180e+00 -6.40287e+00
       O  3.87339e+00  6.83008e+00 -5.78177e+00
       O  4.10291e+00  4.87561e+00 -7.01756e+00
       C -6.27201e-01  1.03114e+01  4.51423e+00
       O -6.95534e-01  9.43863e+00  5.27974e+00
       O -5.62252e-01  1.11874e+01  3.75421e+00
       C  1.90418e+00  8.68782e+00 -2.11241e+00
       O  1.73297e+00  8.21917e+00 -1.06160e+00
       O  2.06104e+00  9.15010e+00 -3.16590e+00
       C  4.48658e+00 -4.33591e+00  9.05860e+00
       O  3.43016e+00 -4.02495e+00  9.43429e+00
       O  5.53750e+00 -4.63681e+00  8.66970e+00
       C  3.25260e+00  1.02265e+01 -8.61851e+00
       O  3.16121e+00  9.08105e+00 -8.44182e+00
       O  3.35526e+00  1.13685e+01 -8.80153e+00
       C -9.18085e+00  4.21592e+00 -6.41098e-01
       O -8.39495e+00  3.85843e+00 -1.42097e+00
       O -9.96914e+00  4.56252e+00  1.37369e-01
       C  4.88148e+00  3.86576e+00  1.02102e+01
       O  4.60101e+00  2.78883e+00  1.05506e+01
       O  5.16073e+00  4.93592e+00  9.86103e+00
       C  9.18458e+00  7.31689e+00 -6.29636e+00
       O  9.53857e+00  6.28973e+00 -5.88608e+00
       O  8.83921e+00  8.34785e+00 -6.70640e+00
       C  5.38180e+00  7.63484e+00  4.98972e+00
       O  4.75007e+00  7.99524e+00  5.89357e+00
       O  6.02021e+00  7.29207e+00  4.07893e+00
       C -8.10524e+00 -2.77116e+00 -7.48362e-01
       O -8.26864e+00 -2.66255e+00  3.97985e-01
       O -7.95321e+00 -2.90276e+00 -1.89220e+00
       C -3.62714e+00  2.45581e+00  2.75544e+00
       O -2.86591e+00  3.28402e+00  3.04806e+00
       O -4.38385e+00  1.62670e+00  2.45320e+00
       C -2.20113e+00  3.97206e+00  6.08423e+00
       O -2.93237e+00  4.87396e+00  6.08717e+00
       O -1.46367e+00  3.07247e+00  6.09062e+00
       C  1.31962e+00  5.41315e+00 -4.33882e+00
       O  1.43896e+00  4.92934e+00 -5.38848e+00
       O  1.20801e+00  5.92249e+00 -3.30045e+00
       C -8.31378e+00  7.77974e+00 -9.11055e-01
       O -7.92912e+00  6.77857e+00 -4.61748e-01
       O -8.70261e+00  8.76851e+00 -1.37904e+00
       C -7.03756e+00 -4.22503e+00 -6.87149e+00
       O -7.19198e+00 -3.37278e+00 -7.64310e+00
       O -6.88218e+00 -5.09027e+00 -6.11016e+00
       C  2.50482e+00  5.35674e-01  1.04931e+01
       O  2.75914e+00  2.12017e-01  9.40603e+00
       O  2.24845e+00  8.62556e-01  1.15795e+01
       C -1.58295e+00 -2.79950e+00  7.12734e+00
       O -1.34414e+00 -2.23135e+00  6.14238e+00
       O -1.83640e+00 -3.38299e+00  8.09880e+00
       C -3.52120e+00 -4.59576e+00 -1.19079e+00
       O -3.75368e+00 -3.46152e+00 -1.12037e+00
       O -3.29224e+00 -5.73414e+00 -1.26624e+00
       C  3.71510e+00  2.62537e+00  6.93488e+00
       O  4.81502e+00  2.57381e+00  7.30577e+00
       O  2.61592e+00  2.69824e+00  6.56507e+00
       C  9.21409e+00 -5.50066e+00 -5.64021e+00
       O  9.99962e+00 -5.04686e+00 -6.36182e+00
       O  8.41234e+00 -5.94264e+00 -4.92106e+00
       C  6.03553e+00  2.61644e+00 -6.83726e+00
       O  6.77673e+00  3.39887e+00 -7.27037e+00
       O  5.29853e+00  1.82843e+00 -6.40652e+00
       C  6.60822e+00 -5.82642e+00  3.05396e+00
       O  7.18794e+00 -5.86510e+00  2.04761e+00
       O  6.02367e+00 -5.80529e+00  4.05743e+00
       C  6.93991e+00  2.61444e+00 -1.62730e+00
       O  8.08824e+00  2.47450e+00 -1.48475e+00
       O  5.80146e+00  2.77715e+00 -1.76904e+00
       C  7.16700e+00  3.62593e-01  4.75037e+00
       O  6.86250e+00  1.07620e-01  3.65741e+00
       O  7.46682e+00  6.14403e-01  5.84346e+00
       C  7.01797e+00  9.28144e+00  2.05740e+00
       O  6.06434e+00  9.93882e+00  1.95824e+00
       O  7.97716e+00  8.63568e+00  2.16725e+00
       C -4.17255e+00  5.02607e+00 -5.48778e+00
       O -4.13062e+00  4.65660e+00 -4.38465e+00
       O -4.18895e+00  5.39751e+00 -6.58672e+00
       C -4.58556e+00 -8.00032e-01 -4.85289e-01
       O -3.61340e+00 -4.19723e-01 -9.98563e-01
       O -5.55065e+00 -1.17726e+00  3.86139e-02
       C  4.33289e+00 -1.53749e+00 -6.88045e+00
       O  4.56003e+00 -1.20652e+00 -5.78967e+00
       O  4.10711e+00 -1.86787e+00 -7.97109e+00
       C -1.96170e+00 -7.53554e-01  3.70270e+00
       O -1.83426e+00 -1.69124e+00  3.02634e+00
       O -2.08938e+00  1.82994e-01  4.37687e+00
       C  2.40555e+00 -9.97116e+00  6.31577e+00
       O  2.42671e+00 -1.01748e+01  7.45672e+00
       O  2.38038e+00 -9.76044e+00  5.17021e+00
       C  1.14865e+00 -3.11730e+00 -8.46980e+00
       O  1.03945e+00 -1.98133e+00 -8.68741e+00
       O  1.24379e+00 -4.25427e+00 -8.25071e+00
       C  9.07469e+00 -3.67497e+00  1.27005e+00
       O  8.66826e+00 -3.58494e+00  1.85362e-01
       O  9.48058e+00 -3.75450e+00  2.35537e+00
       C  6.99995e-01  3.61264e+00 -8.18716e+00
       O  1.56668e+00  3.95212e+00 -8.87992e+00
       O -1.72753e-01  3.28392e+00 -7.49118e+00
       C -5.34377e+00  7.77181e+00 -3.44144e+00
       O -5.74481e+00  7.79534e+00 -2.35097e+00
       O -4.94387e+00  7.75126e+00 -4.53165e+00
       C -5.38025e+00  1.52259e+00 -6.19905e+00
       O -5.21399e+00  4.15581e-01 -5.88693e+00
       O -5.55739e+00  2.62984e+00 -6.50235e+00
       C  6.65063e+00  3.94656e+00  5.10019e+00
       O  6.29902e+00  3.05207e+00  4.44298e+00
       O  7.00731e+00  4.84584e+00  5.73995e+00
       C  4.01344e+00  1.04899e+01 -5.02363e+00
       O  4.85464e+00  1.01114e+01 -4.31569e+00
       O  3.17876e+00  1.08560e+01 -5.74339e+00
       C -3.73627e+00 -9.14849e+00 -4.26967e+00
       O -3.40093e+00 -8.81076e+00 -5.32797e+00
       O -4.07199e+00 -9.49257e+00 -3.21056e+00
       C -1.56878e+00  2.46800e+00 -4.94208e+00
       O -2.45694e+00  2.05552e+00 -5.57028e+00
       O -6.81217e-01  2.88505e+00 -4.32197e+00
       C -4.78523e+00 -2.39335e+00  2.71914e+00
       O -4.91271e+00 -1.47367e+00  3.41814e+00
       O -4.64006e+00 -3.31099e+00  2.02096e+00
       C -7.85442e+00 -8.03189e+00 -6.04476e+00
       O -6.92487e+00 -8.28788e+00 -6.68821e+00
       O -8.79490e+00 -7.79018e+00 -5.40266e+00
       C -2.35187e+00 -7.44782e-01 -3.81760e+00
       O -1.49821e+00 -8.14129e-02 -3.39457e+00
       O -3.20104e+00 -1.41705e+00 -4.24080e+00
       C  6.05640e+00  8.44695e+00 -7.51591e+00
       O  6.14380e+00  7.30876e+00 -7.72473e+00
       O  5.96914e+00  9.58754e+00 -7.30433e+00
       C -5.27371e+00  6.87229e+00  3.17501e+00
       O -5.65970e+00  7.96087e+00  3.04986e+00
       O -4.88496e+00  5.78406e+00  3.29798e+00
       C -1.84216e+00 -4.10500e+00 -4.81258e+00
       O -1.16410e+00 -3.38810e+00 -5.42942e+00
       O -2.51295e+00 -4.81716e+00 -4.18632e+00
       C  7.56183e+00 -7.70035e+00 -2.32281e+00
       O  6.40770e+00 -7.83564e+00 -2.35184e+00
       O  8.71372e+00 -7.56121e+00 -2.27396e+00
       C -5.64288e+00 -5.80481e+00 -3.61618e+00
       O -5.68654e+00 -6.90495e+00 -3.99001e+00
       O -5.59581e+00 -4.71294e+00 -3.22446e+00
       C -7.78688e+00  4.65092e+00  2.86430e+00
       O -7.65729e+00  3.56406e+00  3.25483e+00
       O -7.92093e+00  5.73552e+00  2.47066e+00
       C -7.17510e-01  5.43506e-02 -7.37232e+00
       O -4.87661e-01 -3.37076e-01 -6.30061e+00
       O -9.49737e-01  4.51133e-01 -8.43659e+00
       C -7.01052e-01 -2.10446e+00 -1.23407e+00
       O -4.53661e-01 -1.35137e+00 -3.87206e-01
       O -9.48037e-01 -2.85453e+00 -2.09034e+00
       C -6.47871e-01 -6.75402e+00 -2.90932e+00
       O -1.17454e+00 -7.60937e+00 -3.49034e+00
       O -1.16080e-01 -5.90543e+00 -2.31663e+00
       C  1.19822e+00 -2.46883e+00  3.19508e+00
       O  1.16406e+00 -1.95123e+00  4.23761e+00
       O  1.22630e+00 -2.99051e+00  2.15965e+00
       C  5.53835e-01 -6.09412e+00  6.24856e+00
       O  5.80021e-01 -7.24753e+00  6.38435e+00
       O  5.23708e-01 -4.93884e+00  6.11938e+00
       C  2.01825e+00 -2.17480e+00  7.58825e+00
       O  1.05027e+00 -2.29450e+00  8.21628e+00
       O  2.99022e+00 -2.06868e+00  6.95712e+00
       C -7.16668e+00  5.30735e-01  3.15182e+00
       O -7.36339e+00  3.11384e-01  2.02886e+00
       O -6.98900e+00  7.51749e-01  4.27902e+00
       C -8.73544e+00  8.61391e+00  3.04724e+00
       O -8.74370e+00  8.79869e+00  1.90004e+00
       O -8.73134e+00  8.45222e+00  4.19693e+00
       C  5.38249e+00 -6.64851e+00 -7.48008e+00
       O  5.62587e+00 -7.26683e+00 -6.52399e+00
       O  5.15409e+00 -6.02708e+00 -8.43188e+00
       C  7.48896e+00  2.45516e+00  1.79784e+00
       O  6.48872e+00  2.46646e+00  1.20707e+00
       O  8.49179e+00  2.43882e+00  2.38598e+00
       C -3.67740e+00 -2.30886e+00 -7.08377e+00
       O -3.21487e+00 -1.34448e+00 -7.53377e+00
       O -4.13318e+00 -3.27924e+00 -6.63184e+00
       C -3.51590e-01  2.00177e+00  1.75870e+00
       O -1.07110e+00  1.09066e+00  1.71066e+00
       O  3.67096e-01  2.91286e+00  1.80527e+00
       C -8.01263e+00  4.52007e+00 -4.63244e+00
       O -8.79847e+00  3.69768e+00 -4.86342e+00
       O -7.23133e+00  5.35052e+00 -4.40246e+00
       C  5.39314e+00 -1.11597e+00 -2.35412e+00
       O  4.62048e+00 -1.90868e+00 -2.71291e+00
       O  6.18212e+00 -3.41925e-01 -1.99956e+00
       C  3.90107e+00  4.80325e+00 -2.34180e+00
       O  3.75273e+00  5.04256e+00 -1.21576e+00
       O  4.04625e+00  4.59377e+00 -3.47681e+00
       C -7.97526e-01  9.80654e-01  8.73480e+00
       O -7.25095e-02  1.85049e+00  8.99876e+00
       O -1.52426e+00  1.10634e-01  8.48273e+00
       C  3.95474e+00 -3.04780e-01  4.18381e+00
       O  4.03559e+00  2.90234e-01  5.18038e+00
       O  3.88736e+00 -8.98693e-01  3.18973e+00
       C  4.90541e+00  6.13134e+00  1.37819e+00
       O  5.20287e+00  7.11827e+00  8.40889e-01
       O  4.61941e+00  5.14560e+00  1.92116e+00
       C  2.26625e+00 -3.75818e+00 -2.00312e+00
       O  2.46460e+00 -4.22027e+00 -3.05362e+00
       O  2.05846e+00 -3.30347e+00 -9.56079e-01
       C -6.79524e+00 -5.97311e-01  6.84197e+00
       O -7.39495e+00 -1.48800e+00  6.39854e+00
       O -6.18476e+00  2.81824e-01  7.29290e+00
       C  9.64282e+00 -1.64320e+00  7.21654e+00
       O  1.00955e+01 -1.38865e+00  8.25342e+00
       O  9.17806e+00 -1.90597e+00  6.18190e+00
       C  5.73651e+00  7.40852e+00 -3.57489e+00
       O  4.81437e+00  7.47593e+00 -2.87058e+00
       O  6.66692e+00  7.32725e+00 -4.26594e+00
       C -2.19585e+00  5.89309e+00 -2.36741e+00
       O -2.63576e+00  6.96765e+00 -2.44479e+00
       O -1.75604e+00  4.82252e+00 -2.28593e+00
       C  3.64564e+00 -4.43487e+00  5.10053e+00
       O  3.61813e+00 -3.86570e+00  4.08828e+00
       O  3.66359e+00 -5.00515e+00  6.11317e+00
       C  8.44307e-01  7.21158e-01  5.36076e+00
       O  9.80655e-01  1.12627e+00  4.27923e+00
       O  7.22548e-01  2.99378e-01  6.43564e+00
       C  2.02641e+00  8.01257e+00  3.06418e+00
       O  9.18543e-01  8.32980e+00  2.91514e+00
       O  3.13348e+00  7.69878e+00  3.21606e+00
       C -7.77096e-01  8.58298e+00  5.62884e-01
       O -6.16929e-01  9.71369e+00  7.57142e-01
       O -9.37879e-01  7.44512e+00  3.72162e-01
       C -7.31447e+00 -9.04756e+00 -2.76186e+00
       O -7.47110e+00 -8.33431e+00 -1.85823e+00
       O -7.15755e+00 -9.75372e+00 -3.67012e+00
       C  8.21335e+00 -8.79224e+00 -5.92528e+00
       O  8.53755e+00 -8.35479e+00 -6.95198e+00
       O  7.89665e+00 -9.22329e+00 -4.89430e+00
       C -3.54107e+00 -7.25951e+00  1.43162e+00
       O -3.74554e+00 -6.18590e+00  1.83515e+00
       O -3.33923e+00 -8.32995e+00  1.03265e+00
       C  5.60106e+00 -4.67217e+00 -4.64563e+00
       O  5.80815e+00 -4.16685e+00 -5.67238e+00
       O  5.40599e+00 -5.17353e+00 -3.61686e+00
       C -1.54727e+00 -4.88589e+00 -9.31683e+00
       O -1.79399e+00 -3.89493e+00 -8.76077e+00
       O -1.29600e+00 -5.87553e+00 -9.86878e+00
       C -1.14346e+00  6.21633e+00 -6.49774e+00
       O -1.42716e+00  6.02979e+00 -5.38323e+00
       O -8.47101e-01  6.40143e+00 -7.60236e+00
