ITEM: TIMESTEP
0
ITEM: NUMBER OF ATOMS
10
ITEM: BOX BOUNDS pp pp pp
-1.0000000000000000e+01 1.0000000000000000e+01
-1.0000000000000000e+01 1.0000000000000000e+01
-1.0000000000000000e+01 1.0000000000000000e+01
ITEM: ATOMS id type x y z fx fy fz 
1 1            1.2361419            1.0137761           -0.0612424     13.2622196918469     14.2839549916652     -2.0463482576533 
2 2            0.5104418            0.8944555             0.551419    -8.71089234500774    -3.40248508878132     8.46923202752202 
3 2            1.9926927            1.1973129            0.4956931    0.297029691776992    -2.61156747018278    -1.87347029226338 
4 1           -0.9957202            0.0160415            1.2422556    -6.81885807640535     9.41299429381693     20.2609370577103 
5 2           -1.4542703           -0.5669741            1.8472817     3.20776922401153     1.05599344513308   -0.854989513272471 
6 2            -0.937795           -0.4817912            0.4267562     1.01710327633293    -13.2796255964248    -25.0610198787202 
7 1           -0.2432343           -1.0198566           -1.1953808    -19.7472197902884     207.910637180693     9.13662330348308 
8 2            0.4367536           -0.3759433           -0.9973297     25.2425937057981      22.779469757946   -0.658547458729343 
9 2           -0.5031835           -0.8251492           -2.0957959    -4.09562971826715     1.54240080801106     -7.1595272951132 
10 3           -0.2432343           -3.0198566           -1.1953808    -3.65201006599706    -237.689923532465   -0.212743918061866 
