ITEM: TIMESTEP
0
ITEM: NUMBER OF ATOMS
10
ITEM: BOX BOUNDS pp pp pp
-1.0000000000000000e+01 1.0000000000000000e+01
-1.0000000000000000e+01 1.0000000000000000e+01
-1.0000000000000000e+01 1.0000000000000000e+01
ITEM: ATOMS id type x y z fx fy fz 
1 1            1.2361419            1.0137761           -0.0612424     13.2622196918721     14.2839549916963    -2.04634825764317 
2 2            0.5104418            0.8944555             0.551419    -8.71089234501289    -3.40248508878318     8.46923202752365 
3 2            1.9926927            1.1973129            0.4956931    0.297029691777758    -2.61156747018215    -1.87347029226038 
4 1           -0.9957202            0.0160415            1.2422556    -6.81885807639666      9.4129942938234      20.260937057703 
5 2           -1.4542703           -0.5669741            1.8472817     3.20776922400716     1.05599344512884   -0.854989513266721 
6 2            -0.937795           -0.4817912            0.4267562     1.01710327632864    -13.2796255964328    -25.0610198787246 
7 1           -0.2432343           -1.0198566           -1.1953808    -19.7472197903182     207.910637180586     9.13662330344588 
8 2            0.4367536           -0.3759433           -0.9973297     25.2425937057993     22.7794697579545   -0.658547458734547 
9 2           -0.5031835           -0.8251492           -2.0957959    -4.09562971825721     1.54240080802004    -7.15952729508339 
10 3           -0.2432343           -3.0198566           -1.1953808    -3.65201006599923    -237.689923532398   -0.212743918058153 
