11
# CELL(abcABC):  100.00000   100.00000   100.00000    90.00000    90.00000    90.00000  Step:           0  Bead:       0 positions{angstrom}  cell{angstrom}
       N -8.12976e-01 -1.43297e+00  1.18014e+00
       N -1.91223e+00 -2.45601e+00  2.76443e+00
       C -1.64347e+00 -1.26881e+00  2.20575e+00
       C -2.20839e+00 -3.80000e-05  2.70514e+00
       C -1.23970e+00 -3.42189e+00  2.08801e+00
       H -1.29576e+00 -4.46488e+00  2.34890e+00
       H -1.90467e+00  9.08743e-01  2.15230e+00
       O -2.94450e+00  2.83690e-02  3.64629e+00
       C -5.54673e-01 -2.77573e+00  1.09961e+00
       H  1.04775e-01 -3.19431e+00  3.58679e-01
       H -4.71138e-01 -6.74165e-01  6.05431e-01
11
# CELL(abcABC):  100.00000   100.00000   100.00000    90.00000    90.00000    90.00000  Step:         200  Bead:       0 positions{angstrom}  cell{angstrom}
       N -7.57848e-01 -1.82893e+00  1.18328e+00
       N -1.75163e+00 -2.05017e+00  3.26662e+00
       C -1.62689e+00 -1.31964e+00  2.09750e+00
       C -2.46413e+00 -1.28967e-01  1.89571e+00
       C -9.31977e-01 -3.07573e+00  3.03159e+00
       H -6.52390e-01 -3.67508e+00  3.92412e+00
       H -2.43353e+00  5.01211e-01  9.73570e-01
       O -3.36891e+00  9.61580e-02  2.67952e+00
       C -3.37466e-01 -2.97043e+00  1.70655e+00
       H  3.24511e-01 -3.65374e+00  1.14658e+00
       H -4.71569e-01 -1.47310e+00  2.03750e-01
11
# CELL(abcABC):  100.00000   100.00000   100.00000    90.00000    90.00000    90.00000  Step:         400  Bead:       0 positions{angstrom}  cell{angstrom}
       N -1.08271e+00 -2.51987e+00  1.41754e+00
       N -1.37545e+00 -1.27277e+00  3.36357e+00
       C -1.68887e+00 -1.48400e+00  2.06162e+00
       C -2.76704e+00 -7.48551e-01  1.37660e+00
       C -4.03661e-01 -2.15703e+00  3.51587e+00
       H  4.61686e-02 -2.25644e+00  4.47342e+00
       H -2.76797e+00 -9.29645e-01  2.61063e-01
       O -3.50768e+00  3.25164e-02  1.87279e+00
       C -3.38078e-01 -2.98768e+00  2.37727e+00
       H  2.61166e-01 -3.84369e+00  2.08568e+00
       H -1.22274e+00 -2.86254e+00  4.81055e-01
11
# CELL(abcABC):  100.00000   100.00000   100.00000    90.00000    90.00000    90.00000  Step:         600  Bead:       0 positions{angstrom}  cell{angstrom}
       N -1.08392e+00 -2.31719e+00  1.25278e+00
       N -1.42586e+00 -1.56237e+00  3.37971e+00
       C -1.75846e+00 -1.46601e+00  2.07179e+00
       C -2.74818e+00 -5.06925e-01  1.54317e+00
       C -4.55031e-01 -2.46627e+00  3.36536e+00
       H  3.24837e-02 -2.82457e+00  4.23755e+00
       H -2.76428e+00 -4.26570e-01  4.24719e-01
       O -3.48490e+00  1.06793e-01  2.27888e+00
       C -2.33418e-01 -2.98709e+00  2.04249e+00
       H  5.33338e-01 -3.61205e+00  1.69818e+00
       H -1.15999e+00 -2.41600e+00  2.36597e-01
11
# CELL(abcABC):  100.00000   100.00000   100.00000    90.00000    90.00000    90.00000  Step:         800  Bead:       0 positions{angstrom}  cell{angstrom}
       N -1.32596e+00 -2.77764e+00  1.64721e+00
       N -1.06061e+00 -1.06028e+00  3.14588e+00
       C -1.77446e+00 -1.55590e+00  2.07342e+00
       C -3.08891e+00 -9.92022e-01  1.55904e+00
       C -8.87922e-02 -1.91439e+00  3.27877e+00
       H  6.41409e-01 -1.82725e+00  4.03078e+00
       H -3.47211e+00 -1.48049e+00  6.62927e-01
       O -3.57106e+00  1.04582e-01  1.93287e+00
       C -2.01752e-01 -2.92394e+00  2.29636e+00
       H  3.69221e-01 -3.78912e+00  2.15136e+00
       H -1.73185e+00 -3.20307e+00  8.10629e-01
11
# CELL(abcABC):  100.00000   100.00000   100.00000    90.00000    90.00000    90.00000  Step:        1000  Bead:       0 positions{angstrom}  cell{angstrom}
       N -6.54433e-01 -2.21124e+00  1.54436e+00
       N -1.81054e+00 -1.49632e+00  3.40370e+00
       C -1.73929e+00 -1.52403e+00  2.06737e+00
       C -2.59227e+00 -7.98671e-01  1.14244e+00
       C -8.14326e-01 -2.26973e+00  3.79747e+00
       H -5.28795e-01 -2.37547e+00  4.81546e+00
       H -2.32073e+00 -8.88134e-01  4.37943e-02
       O -3.52051e+00 -1.70893e-01  1.45652e+00
       C -1.31059e-01 -2.68961e+00  2.61898e+00
       H  7.42812e-01 -3.30430e+00  2.62142e+00
       H -3.33434e-01 -2.41253e+00  5.93909e-01
11
# CELL(abcABC):  100.00000   100.00000   100.00000    90.00000    90.00000    90.00000  Step:        1200  Bead:       0 positions{angstrom}  cell{angstrom}
       N -2.37119e-01 -1.83553e+00  2.07120e+00
       N -2.32765e+00 -1.64176e+00  3.13529e+00
       C -1.55437e+00 -1.51557e+00  2.03390e+00
       C -2.25747e+00 -1.01254e+00  8.17741e-01
       C -1.38655e+00 -2.12821e+00  3.92155e+00
       H -1.68573e+00 -2.50177e+00  4.92453e+00
       H -1.67052e+00 -8.73416e-01 -1.39496e-01
       O -3.44143e+00 -7.18380e-01  8.22907e-01
       C -1.02812e-01 -2.26372e+00  3.25860e+00
       H  8.80105e-01 -2.68327e+00  3.66399e+00
       H  4.56342e-01 -1.74490e+00  1.25974e+00
11
# CELL(abcABC):  100.00000   100.00000   100.00000    90.00000    90.00000    90.00000  Step:        1400  Bead:       0 positions{angstrom}  cell{angstrom}
       N -7.25980e-01 -2.56065e+00  2.23904e+00
       N -1.91734e+00 -7.15101e-01  3.05759e+00
       C -1.68446e+00 -1.64277e+00  2.05033e+00
       C -2.26972e+00 -1.60434e+00  7.40033e-01
       C -1.10249e+00 -1.22758e+00  4.00954e+00
       H -1.11392e+00 -7.24283e-01  5.00480e+00
       H -1.99004e+00 -2.42346e+00  5.36928e-02
       O -3.20809e+00 -8.45194e-01  5.04549e-01
       C -3.64801e-01 -2.37289e+00  3.47511e+00
       H  3.87174e-01 -2.99100e+00  4.03712e+00
       H -4.82048e-01 -3.31595e+00  1.51543e+00
11
# CELL(abcABC):  100.00000   100.00000   100.00000    90.00000    90.00000    90.00000  Step:        1600  Bead:       0 positions{angstrom}  cell{angstrom}
       N -2.78162e-01 -1.60387e+00  1.92471e+00
       N -2.12774e+00 -1.37532e+00  3.29522e+00
       C -1.67186e+00 -1.66221e+00  1.99845e+00
       C -2.55480e+00 -1.88260e+00  8.53790e-01
       C -1.01752e+00 -1.24146e+00  3.96199e+00
       H -1.03178e+00 -1.15753e+00  5.08402e+00
       H -2.04369e+00 -2.08482e+00 -1.19200e-01
       O -3.74521e+00 -1.72324e+00  8.94397e-01
       C  1.31662e-01 -1.48183e+00  3.13552e+00
       H  1.16954e+00 -1.48077e+00  3.30081e+00
       H  2.52125e-01 -1.82028e+00  1.09905e+00
11
# CELL(abcABC):  100.00000   100.00000   100.00000    90.00000    90.00000    90.00000  Step:        1800  Bead:       0 positions{angstrom}  cell{angstrom}
       N -3.74689e-01 -1.71849e+00  1.66797e+00
       N -1.96530e+00 -1.23089e+00  3.29173e+00
       C -1.68127e+00 -1.61231e+00  1.97557e+00
       C -2.78629e+00 -1.87751e+00  1.07464e+00
       C -7.67250e-01 -1.18113e+00  3.78990e+00
       H -5.05401e-01 -9.00081e-01  4.82448e+00
       H -2.59458e+00 -2.12306e+00 -6.55341e-03
       O -3.92600e+00 -1.81527e+00  1.35815e+00
       C  2.86669e-01 -1.50879e+00  2.86138e+00
       H  1.35268e+00 -1.66447e+00  2.97081e+00
       H  8.86415e-02 -1.86202e+00  7.89250e-01
11
# CELL(abcABC):  100.00000   100.00000   100.00000    90.00000    90.00000    90.00000  Step:        2000  Bead:       0 positions{angstrom}  cell{angstrom}
       N -7.75331e-01 -2.19230e+00  1.41909e+00
       N -1.48188e+00 -1.15044e+00  3.41700e+00
       C -1.76999e+00 -1.59335e+00  2.10681e+00
       C -3.08057e+00 -1.41147e+00  1.38683e+00
       C -1.74389e-01 -1.60432e+00  3.50036e+00
       H  4.17072e-01 -1.32489e+00  4.33524e+00
       H -3.09748e+00 -1.73638e+00  3.66320e-01
       O -4.05972e+00 -8.94809e-01  1.89925e+00
       C  2.08489e-01 -2.19529e+00  2.24624e+00
       H  1.22518e+00 -2.62508e+00  2.04184e+00
       H -8.00324e-01 -2.56401e+00  4.59447e-01
11
# CELL(abcABC):  100.00000   100.00000   100.00000    90.00000    90.00000    90.00000  Step:        2200  Bead:       0 positions{angstrom}  cell{angstrom}
       N -1.14546e+00 -2.87783e+00  2.04429e+00
       N -1.12255e+00 -7.07705e-01  2.75497e+00
       C -1.86465e+00 -1.73041e+00  2.23790e+00
       C -3.32284e+00 -1.53214e+00  1.84935e+00
       C  9.45670e-02 -1.16734e+00  2.72156e+00
       H  9.81383e-01 -5.34877e-01  2.98437e+00
       H -3.75425e+00 -2.37067e+00  1.31306e+00
       O -3.87098e+00 -4.91828e-01  2.04794e+00
       C  1.18516e-01 -2.49610e+00  2.22754e+00
       H  9.60747e-01 -3.17776e+00  1.93122e+00
       H -1.40707e+00 -3.74101e+00  1.55542e+00
11
# CELL(abcABC):  100.00000   100.00000   100.00000    90.00000    90.00000    90.00000  Step:        2400  Bead:       0 positions{angstrom}  cell{angstrom}
       N -8.29281e-01 -2.50634e+00  1.66553e+00
       N -1.36937e+00 -5.65940e-01  2.77427e+00
       C -1.82685e+00 -1.72142e+00  2.27445e+00
       C -3.22074e+00 -2.10416e+00  2.12139e+00
       C -1.86382e-02 -6.78788e-01  2.67050e+00
       H  6.50807e-01  8.90081e-02  3.00802e+00
       H -3.47104e+00 -3.13986e+00  1.69814e+00
       O -4.13821e+00 -1.40080e+00  2.38757e+00
       C  3.09831e-01 -1.90506e+00  1.96600e+00
       H  1.24329e+00 -2.28920e+00  1.62668e+00
       H -9.62256e-01 -3.34378e+00  1.10319e+00
11
# CELL(abcABC):  100.00000   100.00000   100.00000    90.00000    90.00000    90.00000  Step:        2600  Bead:       0 positions{angstrom}  cell{angstrom}
       N -7.33205e-01 -2.01788e+00  1.27362e+00
       N -1.43002e+00 -1.27682e+00  3.36049e+00
       C -1.78584e+00 -1.62850e+00  2.06282e+00
       C -3.20554e+00 -1.56300e+00  1.61237e+00
       C -9.51938e-02 -1.35930e+00  3.33233e+00
       H  4.38193e-01 -1.12690e+00  4.29497e+00
       H -3.31369e+00 -1.64083e+00  5.32552e-01
       O -4.18823e+00 -1.35716e+00  2.25273e+00
       C  3.34836e-01 -1.79946e+00  2.03735e+00
       H  1.37527e+00 -1.91140e+00  1.64013e+00
       H -7.92700e-01 -2.31174e+00  2.59187e-01
11
# CELL(abcABC):  100.00000   100.00000   100.00000    90.00000    90.00000    90.00000  Step:        2800  Bead:       0 positions{angstrom}  cell{angstrom}
       N -7.68556e-01 -2.16668e+00  1.37961e+00
       N -1.56799e+00 -1.49572e+00  3.40357e+00
       C -1.70993e+00 -1.44587e+00  2.05155e+00
       C -2.83934e+00 -7.89639e-01  1.38774e+00
       C -5.36315e-01 -2.27939e+00  3.53373e+00
       H -1.74765e-01 -2.46898e+00  4.52083e+00
       H -3.05396e+00 -1.09788e+00  3.22343e-01
       O -3.77465e+00 -2.88226e-01  1.96082e+00
       C  3.39361e-02 -2.65924e+00  2.25331e+00
       H  9.36879e-01 -3.23653e+00  1.93098e+00
       H -5.83766e-01 -2.22796e+00  3.52428e-01
11
# CELL(abcABC):  100.00000   100.00000   100.00000    90.00000    90.00000    90.00000  Step:        3000  Bead:       0 positions{angstrom}  cell{angstrom}
       N -5.90295e-01 -2.20806e+00  1.62875e+00
       N -1.83152e+00 -1.33764e+00  3.35674e+00
       C -1.66971e+00 -1.41911e+00  2.03138e+00
       C -2.60113e+00 -9.39705e-01  1.06264e+00
       C -8.62377e-01 -2.02808e+00  3.82534e+00
       H -6.46179e-01 -2.22924e+00  4.96500e+00
       H -2.39957e+00 -1.21498e+00  2.45357e-02
       O -3.67281e+00 -6.22246e-01  1.36778e+00
       C  5.95965e-03 -2.47311e+00  2.75447e+00
       H  9.63035e-01 -3.10255e+00  2.73345e+00
       H -3.23438e-01 -2.54742e+00  6.73130e-01
11
# CELL(abcABC):  100.00000   100.00000   100.00000    90.00000    90.00000    90.00000  Step:        3200  Bead:       0 positions{angstrom}  cell{angstrom}
       N -6.45234e-01 -2.34714e+00  1.77228e+00
       N -1.60027e+00 -9.16678e-01  3.20590e+00
       C -1.76328e+00 -1.69624e+00  2.08379e+00
       C -3.04889e+00 -1.84784e+00  1.32345e+00
       C -3.47134e-01 -1.03274e+00  3.48003e+00
       H  1.41220e-01 -5.48120e-01  4.27551e+00
       H -3.11664e+00 -2.65684e+00  5.63614e-01
       O -4.01896e+00 -1.11081e+00  1.52015e+00
       C  2.76021e-01 -2.00299e+00  2.59488e+00
       H  1.24231e+00 -2.39166e+00  2.57537e+00
       H -5.35712e-01 -2.99820e+00  9.48755e-01
11
# CELL(abcABC):  100.00000   100.00000   100.00000    90.00000    90.00000    90.00000  Step:        3400  Bead:       0 positions{angstrom}  cell{angstrom}
       N -3.45815e-01 -1.98878e+00  1.98173e+00
       N -2.05017e+00 -7.86684e-01  3.00230e+00
       C -1.70043e+00 -1.76443e+00  2.14593e+00
       C -2.63132e+00 -2.45969e+00  1.28410e+00
       C -8.85279e-01 -4.03556e-01  3.50103e+00
       H -8.71198e-01  4.39662e-01  4.22990e+00
       H -2.15706e+00 -3.07560e+00  4.83998e-01
       O -3.82643e+00 -2.25105e+00  1.23923e+00
       C  2.05549e-01 -1.16975e+00  2.85572e+00
       H  1.22522e+00 -1.26534e+00  3.02269e+00
       H  9.67454e-02 -2.70365e+00  1.37453e+00
11
# CELL(abcABC):  100.00000   100.00000   100.00000    90.00000    90.00000    90.00000  Step:        3600  Bead:       0 positions{angstrom}  cell{angstrom}
       N -5.07831e-01 -1.86275e+00  1.46145e+00
       N -1.71046e+00 -9.74651e-01  3.22632e+00
       C -1.72806e+00 -1.70266e+00  2.03745e+00
       C -2.98184e+00 -2.35910e+00  1.54244e+00
       C -4.49756e-01 -6.16730e-01  3.31409e+00
       H -1.26372e-01 -7.93418e-02  4.21649e+00
       H -2.95743e+00 -2.97360e+00  6.29038e-01
       O -4.05535e+00 -2.14517e+00  2.10025e+00
       C  2.78164e-01 -1.18837e+00  2.22926e+00
       H  1.31959e+00 -1.16422e+00  2.01215e+00
       H -3.26550e-01 -2.38052e+00  6.09883e-01
11
# CELL(abcABC):  100.00000   100.00000   100.00000    90.00000    90.00000    90.00000  Step:        3800  Bead:       0 positions{angstrom}  cell{angstrom}
       N -1.05518e+00 -9.53041e-01  1.10428e+00
       N -1.20548e+00 -1.94507e+00  3.24932e+00
       C -1.82386e+00 -1.61521e+00  2.05260e+00
       C -3.26005e+00 -1.87025e+00  1.90327e+00
       C  4.42102e-02 -1.37853e+00  3.07517e+00
       H  8.06660e-01 -1.50801e+00  3.88955e+00
       H -3.71233e+00 -1.53896e+00  9.48796e-01
       O -3.93287e+00 -2.38910e+00  2.77263e+00
       C  1.36559e-01 -8.33222e-01  1.69147e+00
       H  9.84487e-01 -2.33467e-01  1.22722e+00
       H -1.26716e+00 -6.22907e-01  1.48139e-01
11
# CELL(abcABC):  100.00000   100.00000   100.00000    90.00000    90.00000    90.00000  Step:        4000  Bead:       0 positions{angstrom}  cell{angstrom}
       N -1.17366e+00 -1.90763e+00  9.38790e-01
       N -1.08950e+00 -1.28293e+00  3.21262e+00
       C -1.77596e+00 -1.78073e+00  2.17020e+00
       C -3.25166e+00 -1.98292e+00  2.35250e+00
       C  1.17539e-01 -1.18499e+00  2.66614e+00
       H  8.84725e-01 -7.97805e-01  3.25496e+00
       H -3.66026e+00 -2.44812e+00  1.44770e+00
       O -3.92584e+00 -1.38131e+00  3.24946e+00
       C  2.78985e-02 -1.50846e+00  1.22251e+00
       H  8.12362e-01 -1.40520e+00  4.04199e-01
       H -1.55161e+00 -2.13029e+00  5.51822e-02
11
# CELL(abcABC):  100.00000   100.00000   100.00000    90.00000    90.00000    90.00000  Step:        4200  Bead:       0 positions{angstrom}  cell{angstrom}
       N -8.26869e-01 -1.84687e+00  1.21105e+00
       N -1.50209e+00 -7.99453e-01  3.08479e+00
       C -1.71835e+00 -1.80220e+00  2.21017e+00
       C -2.89864e+00 -2.69989e+00  2.28094e+00
       C -3.42703e-01 -2.57084e-01  2.70922e+00
       H  1.30776e-01  5.29572e-01  3.22439e+00
       H -2.83385e+00 -3.54779e+00  1.51320e+00
       O -3.92494e+00 -2.47653e+00  2.87817e+00
       C  8.64772e-02 -9.19116e-01  1.47512e+00
       H  8.77175e-01 -7.61194e-01  8.51595e-01
       H -8.95587e-01 -2.46060e+00  3.12501e-01
11
# CELL(abcABC):  100.00000   100.00000   100.00000    90.00000    90.00000    90.00000  Step:        4400  Bead:       0 positions{angstrom}  cell{angstrom}
       N -3.52951e-01 -2.11188e+00  1.99422e+00
       N -2.05806e+00 -5.49412e-01  2.06169e+00
       C -1.63536e+00 -1.86109e+00  2.33721e+00
       C -2.53669e+00 -2.75872e+00  3.03161e+00
       C -9.64524e-01  4.39360e-02  1.57438e+00
       H -9.92131e-01  1.07034e+00  1.33705e+00
       H -2.06692e+00 -3.80681e+00  3.14843e+00
       O -3.74651e+00 -2.51781e+00  3.18470e+00
       C  4.60956e-02 -9.79931e-01  1.46650e+00
       H  1.03753e+00 -1.02748e+00  1.06648e+00
       H  1.96722e-01 -3.07230e+00  1.98483e+00
11
# CELL(abcABC):  100.00000   100.00000   100.00000    90.00000    90.00000    90.00000  Step:        4600  Bead:       0 positions{angstrom}  cell{angstrom}
       N -4.66667e-01 -2.25209e+00  1.98148e+00
       N -1.92168e+00 -5.34171e-01  1.99310e+00
       C -1.68774e+00 -1.79613e+00  2.37815e+00
       C -2.65110e+00 -2.62447e+00  3.11616e+00
       C -8.47322e-01 -1.64124e-01  1.34415e+00
       H -7.61941e-01  8.58806e-01  9.67043e-01
       H -2.29799e+00 -3.61389e+00  3.38792e+00
       O -3.74082e+00 -2.19070e+00  3.41625e+00
       C  7.63355e-02 -1.23776e+00  1.35600e+00
       H  1.07686e+00 -1.19228e+00  1.00127e+00
       H -1.63243e-02 -3.16683e+00  2.20017e+00
11
# CELL(abcABC):  100.00000   100.00000   100.00000    90.00000    90.00000    90.00000  Step:        4800  Bead:       0 positions{angstrom}  cell{angstrom}
       N -7.11053e-01 -2.48975e+00  1.91168e+00
       N -1.65528e+00 -3.98882e-01  2.13029e+00
       C -1.73574e+00 -1.72408e+00  2.31456e+00
       C -2.89806e+00 -2.42148e+00  2.86538e+00
       C -5.12874e-01 -2.76215e-01  1.49948e+00
       H -1.74991e-01  7.36590e-01  1.23087e+00
       H -2.97720e+00 -3.50823e+00  2.76322e+00
       O -3.74457e+00 -1.88739e+00  3.47151e+00
       C  8.23784e-02 -1.59819e+00  1.41557e+00
       H  1.02731e+00 -1.88851e+00  1.02299e+00
       H -6.63662e-01 -3.49289e+00  1.91097e+00
11
# CELL(abcABC):  100.00000   100.00000   100.00000    90.00000    90.00000    90.00000  Step:        5000  Bead:       0 positions{angstrom}  cell{angstrom}
       N -7.03876e-01 -2.54197e+00  1.95480e+00
       N -1.73639e+00 -5.49825e-01  1.85914e+00
       C -1.76152e+00 -1.82911e+00  2.28502e+00
       C -2.89558e+00 -2.27990e+00  3.15563e+00
       C -5.37877e-01 -4.59975e-01  1.29660e+00
       H -2.34177e-01  5.09025e-01  8.11510e-01
       H -2.81637e+00 -3.32702e+00  3.64187e+00
       O -3.67508e+00 -1.49947e+00  3.62892e+00
       C  9.73146e-02 -1.71249e+00  1.36440e+00
       H  1.03222e+00 -2.01557e+00  1.02582e+00
       H -4.48089e-01 -3.53756e+00  2.03970e+00
11
# CELL(abcABC):  100.00000   100.00000   100.00000    90.00000    90.00000    90.00000  Step:        5200  Bead:       0 positions{angstrom}  cell{angstrom}
       N -7.40143e-01 -2.52372e+00  1.78516e+00
       N -1.80590e+00 -4.74800e-01  1.90661e+00
       C -1.69974e+00 -1.76951e+00  2.35158e+00
       C -2.54332e+00 -2.28035e+00  3.46578e+00
       C -9.28800e-01 -4.53371e-01  9.16255e-01
       H -8.17411e-01  4.57313e-01  3.37907e-01
       H -2.29784e+00 -3.35881e+00  3.66184e+00
       O -3.34739e+00 -1.66549e+00  4.09425e+00
       C -2.03461e-01 -1.66161e+00  9.88848e-01
       H  6.60515e-01 -2.02171e+00  3.74801e-01
       H -4.34710e-01 -3.49874e+00  1.97423e+00
11
# CELL(abcABC):  100.00000   100.00000   100.00000    90.00000    90.00000    90.00000  Step:        5400  Bead:       0 positions{angstrom}  cell{angstrom}
       N -4.52365e-01 -2.13140e+00  1.83019e+00
       N -2.23263e+00 -7.38371e-01  1.77501e+00
       C -1.54328e+00 -1.69426e+00  2.47586e+00
       C -2.07254e+00 -2.24448e+00  3.72906e+00
       C -1.52672e+00 -5.74357e-01  6.78489e-01
       H -1.82890e+00  2.31410e-01  1.52472e-02
       H -1.54732e+00 -3.13848e+00  4.09423e+00
       O -3.05651e+00 -1.93314e+00  4.27768e+00
       C -4.45101e-01 -1.50950e+00  7.09245e-01
       H  1.23835e-01 -1.87045e+00 -7.99214e-02
       H  2.06684e-01 -2.87985e+00  2.15735e+00
11
# CELL(abcABC):  100.00000   100.00000   100.00000    90.00000    90.00000    90.00000  Step:        5600  Bead:       0 positions{angstrom}  cell{angstrom}
       N -5.57879e-01 -2.08873e+00  1.58199e+00
       N -2.47233e+00 -8.82677e-01  1.92176e+00
       C -1.47575e+00 -1.61005e+00  2.50019e+00
       C -1.58025e+00 -2.12198e+00  3.83214e+00
       C -2.05506e+00 -7.43927e-01  6.13217e-01
       H -2.62033e+00 -1.12993e-01 -6.78023e-02
       H -5.48548e-01 -2.55959e+00  4.09391e+00
       O -2.45404e+00 -1.93827e+00  4.61573e+00
       C -8.61432e-01 -1.46544e+00  3.95997e-01
       H -2.12338e-01 -1.63974e+00 -5.11967e-01
       H  1.55377e-01 -2.81903e+00  1.70881e+00
11
# CELL(abcABC):  100.00000   100.00000   100.00000    90.00000    90.00000    90.00000  Step:        5800  Bead:       0 positions{angstrom}  cell{angstrom}
       N -6.83419e-01 -2.20289e+00  1.48496e+00
       N -2.58433e+00 -9.90348e-01  1.93141e+00
       C -1.52650e+00 -1.69277e+00  2.40928e+00
       C -1.40500e+00 -2.01029e+00  3.82505e+00
       C -2.22184e+00 -8.61976e-01  6.67599e-01
       H -2.70601e+00 -2.68747e-01 -7.88496e-02
       H -4.32546e-01 -2.58263e+00  3.97710e+00
       O -2.04189e+00 -1.51267e+00  4.74091e+00
       C -1.06356e+00 -1.65710e+00  3.84176e-01
       H -5.37330e-01 -1.86415e+00 -4.95303e-01
       H  1.21292e-01 -2.74352e+00  1.70781e+00
11
# CELL(abcABC):  100.00000   100.00000   100.00000    90.00000    90.00000    90.00000  Step:        6000  Bead:       0 positions{angstrom}  cell{angstrom}
       N -1.46065e+00 -2.68891e+00  1.43801e+00
       N -1.88503e+00 -5.26976e-01  2.02073e+00
       C -1.58091e+00 -1.76771e+00  2.43449e+00
       C -1.35645e+00 -2.04057e+00  3.84230e+00
       C -1.99176e+00 -6.67662e-01  7.02506e-01
       H -2.05960e+00  1.97846e-01  1.03977e-01
       H -8.96324e-01 -3.01792e+00  3.98472e+00
       O -1.47296e+00 -1.18864e+00  4.66742e+00
       C -1.75654e+00 -2.02238e+00  3.72431e-01
       H -1.81393e+00 -2.49586e+00 -6.70150e-01
       H -1.14691e+00 -3.68086e+00  1.48809e+00
11
# CELL(abcABC):  100.00000   100.00000   100.00000    90.00000    90.00000    90.00000  Step:        6200  Bead:       0 positions{angstrom}  cell{angstrom}
       N -9.91476e-01 -2.30887e+00  1.30430e+00
       N -2.35557e+00 -6.89358e-01  2.10338e+00
       C -1.56793e+00 -1.70054e+00  2.38641e+00
       C -1.26899e+00 -2.10785e+00  3.80620e+00
       C -2.30915e+00 -7.61024e-01  7.72519e-01
       H -2.86602e+00  2.74529e-02  2.23903e-01
       H -5.41320e-01 -2.87280e+00  3.78551e+00
       O -1.57270e+00 -1.55764e+00  4.84259e+00
       C -1.48207e+00 -1.78145e+00  2.40614e-01
       H -1.31563e+00 -2.02619e+00 -8.06473e-01
       H -2.77065e-01 -3.04962e+00  1.37239e+00
11
# CELL(abcABC):  100.00000   100.00000   100.00000    90.00000    90.00000    90.00000  Step:        6400  Bead:       0 positions{angstrom}  cell{angstrom}
       N -2.22103e+00 -2.00222e+00  1.03716e+00
       N -1.39218e+00 -5.13585e-01  2.66331e+00
       C -1.58017e+00 -1.85106e+00  2.22389e+00
       C -1.12639e+00 -2.96486e+00  3.13196e+00
       C -1.98378e+00  1.13822e-01  1.65165e+00
       H -2.04196e+00  1.15858e+00  1.67461e+00
       H -1.12769e+00 -3.97677e+00  2.78135e+00
       O -7.64512e-01 -2.74592e+00  4.25608e+00
       C -2.41838e+00 -7.72111e-01  6.21297e-01
       H -2.86359e+00 -5.08679e-01 -2.65107e-01
       H -2.36991e+00 -2.88255e+00  5.84336e-01
11
# CELL(abcABC):  100.00000   100.00000   100.00000    90.00000    90.00000    90.00000  Step:        6600  Bead:       0 positions{angstrom}  cell{angstrom}
       N -2.64313e+00 -2.31704e+00  1.64959e+00
       N -9.84558e-01 -7.48020e-01  1.83804e+00
       C -1.62871e+00 -1.75535e+00  2.40456e+00
       C -1.31934e+00 -2.25301e+00  3.74013e+00
       C -1.71792e+00 -5.06079e-01  7.97594e-01
       H -1.48958e+00  3.14937e-01  1.17707e-01
       H -1.95131e+00 -3.17968e+00  4.08339e+00
       O -4.52665e-01 -1.78166e+00  4.42047e+00
       C -2.69796e+00 -1.48927e+00  6.22916e-01
       H -3.40338e+00 -1.57980e+00 -1.69099e-01
       H -3.26669e+00 -3.12868e+00  1.84917e+00
11
# CELL(abcABC):  100.00000   100.00000   100.00000    90.00000    90.00000    90.00000  Step:        6800  Bead:       0 positions{angstrom}  cell{angstrom}
       N -2.79679e+00 -2.29006e+00  1.84101e+00
       N -8.17815e-01 -1.02508e+00  1.71308e+00
       C -1.78885e+00 -1.63761e+00  2.49255e+00
       C -1.54744e+00 -1.67363e+00  3.91841e+00
       C -1.27462e+00 -1.28445e+00  4.98780e-01
       H -7.65084e-01 -9.99339e-01 -3.75299e-01
       H -2.17625e+00 -2.31772e+00  4.52850e+00
       O -7.24320e-01 -9.27741e-01  4.37630e+00
       C -2.45575e+00 -2.15320e+00  6.06667e-01
       H -3.01992e+00 -2.62319e+00 -1.15924e-01
       H -3.56179e+00 -2.83271e+00  2.20306e+00
11
# CELL(abcABC):  100.00000   100.00000   100.00000    90.00000    90.00000    90.00000  Step:        7000  Bead:       0 positions{angstrom}  cell{angstrom}
       N -2.69485e+00 -2.38760e+00  1.84547e+00
       N -8.14842e-01 -1.07645e+00  1.68951e+00
       C -1.81465e+00 -1.52916e+00  2.46434e+00
       C -1.77195e+00 -1.41717e+00  3.91549e+00
       C -1.12105e+00 -1.48643e+00  4.41459e-01
       H -6.94805e-01 -1.03559e+00 -3.92697e-01
       H -2.52935e+00 -1.98721e+00  4.54976e+00
       O -7.96351e-01 -9.10667e-01  4.50909e+00
       C -2.37801e+00 -2.18237e+00  5.50307e-01
       H -2.83406e+00 -2.67976e+00 -1.91770e-01
       H -3.55299e+00 -2.86600e+00  2.15833e+00
11
# CELL(abcABC):  100.00000   100.00000   100.00000    90.00000    90.00000    90.00000  Step:        7200  Bead:       0 positions{angstrom}  cell{angstrom}
       N -2.93798e+00 -1.68192e+00  1.77330e+00
       N -6.77339e-01 -1.96603e+00  1.84814e+00
       C -1.77742e+00 -1.50106e+00  2.47986e+00
       C -1.66668e+00 -7.58845e-01  3.78255e+00
       C -1.15596e+00 -2.38067e+00  6.85469e-01
       H -4.11777e-01 -2.73096e+00 -8.16045e-02
       H -2.57936e+00 -2.35236e-01  4.11491e+00
       O -5.95088e-01 -6.58967e-01  4.26695e+00
       C -2.58729e+00 -2.23506e+00  6.60701e-01
       H -3.28910e+00 -2.48178e+00 -1.48459e-01
       H -3.84602e+00 -1.45618e+00  2.05703e+00
11
# CELL(abcABC):  100.00000   100.00000   100.00000    90.00000    90.00000    90.00000  Step:        7400  Bead:       0 positions{angstrom}  cell{angstrom}
       N -1.91591e+00 -9.83955e-01  1.07940e+00
       N -1.48978e+00 -2.75878e+00  2.51552e+00
       C -1.56201e+00 -1.39499e+00  2.29498e+00
       C -1.37098e+00 -3.46798e-01  3.35411e+00
       C -1.89302e+00 -3.17833e+00  1.33897e+00
       H -1.98853e+00 -4.27205e+00  1.16166e+00
       H -1.59785e+00  7.03740e-01  2.99861e+00
       O -1.01863e+00 -5.82924e-01  4.50744e+00
       C -2.19346e+00 -2.05680e+00  4.58104e-01
       H -2.60915e+00 -2.02693e+00 -6.29016e-01
       H -2.12123e+00  8.15751e-03  8.96861e-01
11
# CELL(abcABC):  100.00000   100.00000   100.00000    90.00000    90.00000    90.00000  Step:        7600  Bead:       0 positions{angstrom}  cell{angstrom}
       N -2.23876e+00 -9.20399e-01  1.24281e+00
       N -1.39415e+00 -2.66854e+00  2.34582e+00
       C -1.57678e+00 -1.37431e+00  2.31346e+00
       C -1.09902e+00 -4.37366e-01  3.33436e+00
       C -2.05360e+00 -3.12601e+00  1.32766e+00
       H -2.16589e+00 -4.19434e+00  1.18812e+00
       H -1.46041e+00  5.96409e-01  3.24746e+00
       O -4.65842e-01 -7.23466e-01  4.32561e+00
       C -2.66295e+00 -2.03487e+00  6.48667e-01
       H -3.31090e+00 -2.01099e+00 -2.64178e-01
       H -2.55342e+00  6.33617e-02  1.10978e+00
11
# CELL(abcABC):  100.00000   100.00000   100.00000    90.00000    90.00000    90.00000  Step:        7800  Bead:       0 positions{angstrom}  cell{angstrom}
       N -2.96842e+00 -1.27791e+00  2.01999e+00
       N -7.43724e-01 -1.95463e+00  1.53768e+00
       C -1.67433e+00 -1.42460e+00  2.43203e+00
       C -1.29876e+00 -1.10440e+00  3.81724e+00
       C -1.55656e+00 -2.13314e+00  5.44964e-01
       H -1.12316e+00 -2.51460e+00 -3.22622e-01
       H -2.07871e+00 -6.58432e-01  4.43539e+00
       O -2.19758e-01 -1.39754e+00  4.24481e+00
       C -2.99122e+00 -1.80359e+00  8.35923e-01
       H -3.81794e+00 -1.84368e+00  2.83457e-01
       H -3.74442e+00 -8.20886e-01  2.52598e+00
11
# CELL(abcABC):  100.00000   100.00000   100.00000    90.00000    90.00000    90.00000  Step:        8000  Bead:       0 positions{angstrom}  cell{angstrom}
       N -2.59630e+00 -6.15974e-01  2.27386e+00
       N -1.18502e+00 -2.23178e+00  1.36533e+00
       C -1.67317e+00 -1.59505e+00  2.48922e+00
       C -1.22759e+00 -1.80799e+00  3.86534e+00
       C -1.83720e+00 -1.58600e+00  3.82413e-01
       H -1.63911e+00 -1.73347e+00 -6.52997e-01
       H -1.75152e+00 -1.22256e+00  4.70359e+00
       O -2.42536e-01 -2.54330e+00  4.05254e+00
       C -2.73217e+00 -6.43208e-01  1.01000e+00
       H -3.50041e+00  8.61881e-02  5.52581e-01
       H -3.15514e+00 -5.97077e-02  2.84643e+00
11
# CELL(abcABC):  100.00000   100.00000   100.00000    90.00000    90.00000    90.00000  Step:        8200  Bead:       0 positions{angstrom}  cell{angstrom}
       N -2.73908e+00 -8.06956e-01  2.08311e+00
       N -9.91304e-01 -2.10274e+00  1.47244e+00
       C -1.64990e+00 -1.49450e+00  2.48890e+00
       C -1.26698e+00 -1.58600e+00  3.93091e+00
       C -1.65709e+00 -1.79998e+00  3.57387e-01
       H -1.23643e+00 -2.01364e+00 -5.75464e-01
       H -1.93721e+00 -1.09672e+00  4.69174e+00
       O -3.96224e-01 -2.30674e+00  4.32580e+00
       C -2.76535e+00 -9.13509e-01  7.46861e-01
       H -3.39772e+00 -5.40117e-01  1.07736e-01
       H -3.30189e+00 -2.46153e-01  2.70632e+00
11
# CELL(abcABC):  100.00000   100.00000   100.00000    90.00000    90.00000    90.00000  Step:        8400  Bead:       0 positions{angstrom}  cell{angstrom}
       N -2.40523e+00 -6.07844e-01  1.66825e+00
       N -7.21282e-01 -2.16885e+00  1.77929e+00
       C -1.77632e+00 -1.57974e+00  2.41290e+00
       C -2.18271e+00 -1.85086e+00  3.85593e+00
       C -8.32308e-01 -1.61162e+00  5.29188e-01
       H -1.57652e-01 -1.93790e+00 -2.39348e-01
       H -3.00485e+00 -1.13352e+00  4.17700e+00
       O -1.54715e+00 -2.60209e+00  4.65467e+00
       C -1.84878e+00 -5.94525e-01  5.10248e-01
       H -2.12331e+00  1.32777e-01 -2.48096e-01
       H -3.04166e+00  8.33873e-03  2.09299e+00
11
# CELL(abcABC):  100.00000   100.00000   100.00000    90.00000    90.00000    90.00000  Step:        8600  Bead:       0 positions{angstrom}  cell{angstrom}
       N -2.81586e+00 -1.06085e+00  1.63496e+00
       N -5.93974e-01 -1.20790e+00  2.35670e+00
       C -1.84809e+00 -1.68650e+00  2.40042e+00
       C -2.03574e+00 -2.92512e+00  3.14922e+00
       C -7.43285e-01 -1.88242e-01  1.48893e+00