LAMMPS data file via write_data, version 2 Aug 2023, timestep = 100, units = real

768 atoms
2 atom types
512 bonds
1 bond types
256 angles
1 angle types

0.00033828338625596643 19.655502780867728 xlo xhi
0.00033828338625596643 19.655502780867728 ylo yhi
0.00033828338625596643 19.655502780867728 zlo zhi

Masses

1 15.9994
2 1.008

Atoms # full

1 1 1 -1.1128 2.6696248870790638 5.260932495840358 17.60809921420046 1 0 0
2 1 2 0.5564 2.2427255320728574 5.934093787418942 17.063711679904596 1 0 0
3 1 2 0.5564 2.159991697924501 5.3027213316423625 18.45965714856477 1 0 0
4 2 1 -1.1128 1.389571720018154 4.897222580064953 0.1909144892826206 1 0 1
5 2 2 0.5564 1.008023450378975 5.190782049871591 1.016108977687535 1 0 1
6 2 2 0.5564 1.479399014421124 3.9438465336017954 0.32527591971768005 1 0 1
7 3 1 -1.1128 8.8457943246556 5.310840562924772 0.8842110790859935 0 0 1
8 3 2 0.5564 9.515727095293595 5.779985090038478 1.3701108097537686 0 0 1
9 3 2 0.5564 9.486575337444252 4.70104097795048 0.45119169463407166 0 0 1
10 4 1 -1.1128 15.041815452442309 1.5411227304596038 3.8080365668081524 0 1 0
11 4 2 0.5564 14.367575662160878 1.8759746612135642 3.1883172534896485 0 1 0
12 4 2 0.5564 15.834959646499327 1.9438308864285097 3.448562963546067 0 1 0
13 5 1 -1.1128 17.325518320756224 3.1606639795692857 0.08129036843447073 0 1 1
14 5 2 0.5564 17.36179397407105 4.1157297566878 0.09421953778870636 0 0 1
15 5 2 0.5564 17.614844884297572 2.9808360091339545 0.9963625862748109 0 1 1
16 6 1 -1.1128 3.8328670810789793 6.868546562799202 3.571034673265516 0 0 0
17 6 2 0.5564 3.877353329871918 6.249294751390314 4.316906656040641 0 0 0
18 6 2 0.5564 3.757413854871904 6.45300878862338 2.6730961297581834 0 0 1
19 7 1 -1.1128 10.642974881728387 11.003618407599596 5.799884834950075 0 0 0
20 7 2 0.5564 11.538788108539968 10.606820017576833 5.788274265019343 0 0 0
21 7 2 0.5564 10.021816377499416 10.268889336734984 5.74279745910355 0 0 0
22 8 1 -1.1128 8.394837178400177 9.2340359539736 5.289562986398152 0 0 0
23 8 2 0.5564 7.516611464806527 9.126892405843103 4.989735929933016 0 0 0
24 8 2 0.5564 8.579882485325838 8.40162289589208 5.790461343296388 0 0 0
25 9 1 -1.1128 13.683435631173596 5.80471712486567 1.5904685613688943 0 0 1
26 9 2 0.5564 13.172825412905967 5.539365211732906 2.329415269394078 0 0 1
27 9 2 0.5564 13.125455854519897 5.633680144797299 0.800093207432021 0 0 1
28 10 1 -1.1128 15.664708761586137 8.79547425864031 5.596492545372449 0 0 0
29 10 2 0.5564 16.03160029757333 7.986159298546198 5.192502266716088 0 0 0
30 10 2 0.5564 15.220987362165902 9.353687476287927 4.937938830502438 0 0 0
31 11 1 -1.1128 5.602671273821466 9.140601057187032 4.4760564711542905 0 0 0
32 11 2 0.5564 5.090981488300135 8.316410649591575 4.484573264794308 0 0 0
33 11 2 0.5564 5.357772059545607 9.691507296010412 5.235857540696061 0 0 0
34 12 1 -1.1128 17.599851768716466 10.038211422369741 19.23977048096882 0 0 0
35 12 2 0.5564 16.680021737030348 9.919556226223897 18.921253682130345 0 0 0
36 12 2 0.5564 17.391829957821844 10.708659654363416 0.22604091806610271 0 0 1
37 13 1 -1.1128 16.048283493181213 7.294958541559818 2.0205630721615715 0 0 1
38 13 2 0.5564 15.972106603324143 8.29856598595341 1.9628354698977497 0 0 1
39 13 2 0.5564 15.138509401138089 6.892165302006107 1.938764879587396 0 0 1
40 14 1 -1.1128 9.883517591623898 8.67532417806012 1.2344927739819365 0 0 1
41 14 2 0.5564 9.92675127484339 9.050654976868273 0.3463202838984753 0 0 1
42 14 2 0.5564 9.003643365826692 8.809863328549648 1.5862843188790114 0 0 1
43 15 1 -1.1128 12.702455910228545 9.054660528457843 2.067541481120749 0 0 1
44 15 2 0.5564 12.80408183276623 8.155343319970491 1.7509594215426987 0 0 1
45 15 2 0.5564 11.900455840295711 9.491771255100884 1.7076150759903501 0 0 1
46 16 1 -1.1128 15.276529801974112 9.76801059714772 2.5606755451345857 0 0 1
47 16 2 0.5564 14.373521957535916 9.912518756589847 2.2493392954201714 0 0 1
48 16 2 0.5564 15.73381864780425 10.600610968856367 2.384950223854077 0 0 1
49 17 1 -1.1128 16.455019890149515 16.863214324238122 3.9009438507230136 0 0 0
50 17 2 0.5564 16.072439058139427 17.482770433362177 4.5425400313494535 0 0 0
51 17 2 0.5564 16.33410052292452 17.437074006558007 3.1377326730672084 0 0 1
52 18 1 -1.1128 1.060211585632114 10.965582919595075 2.5340515396161445 1 0 1
53 18 2 0.5564 0.5663545725252734 11.214607225805763 3.2943557978261357 1 0 1
54 18 2 0.5564 1.4432522691267582 10.120047867892282 2.858224984485658 1 0 1
55 19 1 -1.1128 7.811947721418133 14.238379537649855 4.332871376885239 0 0 0
56 19 2 0.5564 7.3142470439544365 13.743223007580914 4.956518166891803 0 0 0
57 19 2 0.5564 7.2983071294501904 14.423462873392777 3.533908142208049 0 0 0
58 20 1 -1.1128 13.706559658997726 12.972019422447985 1.3533530674332819 0 0 1
59 20 2 0.5564 13.527424494473964 13.674112343208245 2.0658031713054474 0 0 1
60 20 2 0.5564 12.87927244771065 12.437047521364724 1.3076313477739598 0 0 1
61 21 1 -1.1128 3.465157351806159 14.720505925755477 2.4485184194806284 0 0 1
62 21 2 0.5564 3.0078388081970306 14.24009387850316 1.7036888186067762 1 0 1
63 21 2 0.5564 4.178020945867441 15.311018056308733 2.180259836870877 0 0 1
64 22 1 -1.1128 8.728924252034105 15.740041615708522 7.9700338376929025 0 0 0
65 22 2 0.5564 8.683836257199737 15.531465568093441 8.906951563220781 0 0 0
66 22 2 0.5564 9.148800819074722 14.919361450778752 7.623124781418501 0 0 0
67 23 1 -1.1128 9.912642586225683 9.508778243872337 18.255290429989103 0 0 0
68 23 2 0.5564 9.754881621305541 8.596822361433263 17.98873054958693 0 0 0
69 23 2 0.5564 10.578382920468927 9.794485300601313 17.608842812101773 0 0 0
70 24 1 -1.1128 13.461972730159165 16.867307819927426 2.1733829686291823 0 0 1
71 24 2 0.5564 14.081282540787075 17.642345351538307 2.305903977902571 0 0 1
72 24 2 0.5564 13.67898337163693 16.340427319741856 2.8585797389584067 0 0 1
73 25 1 -1.1128 18.05865267552512 17.88383528275375 0.9242521149172681 0 0 1
74 25 2 0.5564 17.187361170721427 18.116595633247858 1.1853009799527416 0 0 1
75 25 2 0.5564 18.110227098498086 17.74567463009658 19.60269472536494 0 0 0
76 26 1 -1.1128 7.300540828445214 17.003735273713545 3.6977292928429244 0 0 0
77 26 2 0.5564 8.116149324235286 17.35299924523677 3.345958015454033 0 0 0
78 26 2 0.5564 7.556911142338042 16.368019808680366 4.344372053264103 0 0 0
79 27 1 -1.1128 10.634675696133575 12.682249836300374 18.114786259399303 0 0 0
80 27 2 0.5564 11.366383961959874 13.26945227898184 17.990597948182433 0 0 0
81 27 2 0.5564 10.086359845051357 13.183228794187901 18.755245428330834 0 0 0
82 28 1 -1.1128 16.813060446162694 17.356967826903155 8.364057921709188 0 0 0
83 28 2 0.5564 16.59598525188214 17.74490723483697 7.499828136358915 0 0 0
84 28 2 0.5564 15.970050462323785 17.488329861583548 8.868518669775595 0 0 0
85 29 1 -1.1128 18.658722263917433 0.6825437026531892 18.333808143035174 0 1 0
86 29 2 0.5564 18.318731047215422 1.5010069570499964 18.70225874915419 0 1 0
87 29 2 0.5564 17.86375465336311 0.1664244844316311 18.224550948498287 0 1 0
88 30 1 -1.1128 2.66914450429918 19.159754532534777 19.382811162254537 1 0 0
89 30 2 0.5564 2.292445368790074 18.258890816044886 19.303370534435807 1 0 0
90 30 2 0.5564 3.070946050869814 19.271853143154512 18.513708070325045 0 0 0
91 31 1 -1.1128 7.399545884494574 6.1464879933692655 3.778222522142933 0 0 0
92 31 2 0.5564 8.343737024032595 6.064969128071218 3.9668361775493675 0 0 0
93 31 2 0.5564 7.278288126531417 6.857900823822603 3.1059352563162372 0 0 0
94 32 1 -1.1128 15.395511742588468 19.005436989975706 2.144155730761459 0 0 1
95 32 2 0.5564 15.006272426520068 19.215866531923457 1.267289747026812 0 0 1
96 32 2 0.5564 15.277413382292266 0.11145952136994837 2.74128203837384 0 1 1
97 33 1 -1.1128 19.22164617861423 1.0635485208895017 2.141281064299136 0 1 1
98 33 2 0.5564 0.2304292201268483 1.5533696323367316 1.5996605181846817 1 1 1
99 33 2 0.5564 19.015006597775674 0.3365176544390309 1.5530848977996354 0 1 1
100 34 1 -1.1128 1.532843736253102 19.307787871424566 8.193159293228385 1 0 0
101 34 2 0.5564 0.696059189890719 19.123243307737052 8.658860606970858 1 0 0
102 34 2 0.5564 1.4912809505845892 0.6005556193195007 7.970013799585751 1 1 0
103 35 1 -1.1128 2.7616931572680326 2.667977021850304 4.774857662017566 1 1 0
104 35 2 0.5564 2.922411483292995 2.3666644342000067 3.859234909290809 0 1 0
105 35 2 0.5564 2.3972145752683804 1.8454475362742393 5.16293758270471 1 1 0
106 36 1 -1.1128 16.372215455606106 3.673264055146264 9.975548812657085 0 0 0
107 36 2 0.5564 16.33270771481499 3.009423441756191 9.226003537894394 0 1 0
108 36 2 0.5564 15.401980059974242 3.856379881447065 10.116987988418064 0 0 0
109 37 1 -1.1128 12.291221646735165 4.479289445589918 3.4981823848108924 0 0 0
110 37 2 0.5564 11.386458993112328 4.754284129015885 3.445774114626023 0 0 1
111 37 2 0.5564 12.42722025412843 4.915324541771849 4.3719958771235135 0 0 0
112 38 1 -1.1128 0.4686739199624104 5.647236619772162 2.6130181549391804 1 0 1
113 38 2 0.5564 0.33981180673868944 5.304969866304273 3.5263724747553713 1 0 0
114 38 2 0.5564 0.6412135235865793 6.6051487356840966 2.6804791635512006 1 0 1
115 39 1 -1.1128 3.8858324802087316 5.0190060336531435 5.849112553545632 0 0 0
116 39 2 0.5564 4.614392148603922 4.637649736252705 6.414018840164094 0 0 0
117 39 2 0.5564 3.4938432224027256 4.206454905939335 5.444494937519909 0 0 0
118 40 1 -1.1128 9.946822509719134 6.52732446778923 5.460145701926889 0 0 0
119 40 2 0.5564 10.422755386498537 7.184404095439284 5.925433592339357 0 0 0
120 40 2 0.5564 10.31596089138003 5.720471004167323 5.906399064068786 0 0 0
121 41 1 -1.1128 2.3377482732644177 10.818397924461271 8.30958246036701 1 0 0
122 41 2 0.5564 1.7144481519145183 10.452386122685516 7.672415034186853 1 0 0
123 41 2 0.5564 2.0722666087401667 11.73977595049058 8.55423764831005 1 0 0
124 42 1 -1.1128 0.1787511680335776 4.200163588355332 4.777599638607877 1 0 0
125 42 2 0.5564 19.444809374354637 4.029216376600819 5.6389709676132105 0 0 0
126 42 2 0.5564 1.0239568045906 3.7482386233429743 4.848679714987033 1 0 0
127 43 1 -1.1128 11.05706078362147 8.08957408818876 7.9104957296374545 0 0 0
128 43 2 0.5564 11.377607114990022 8.94255733456502 7.5071538251382295 0 0 0
129 43 2 0.5564 10.269739250890165 8.257993728087872 8.485688932714318 0 0 0
130 44 1 -1.1128 16.179785241424675 12.065530757103907 1.0945517884402638 0 0 1
131 44 2 0.5564 16.77618984903372 12.62143918462031 1.5894010660241018 0 0 1
132 44 2 0.5564 15.266152093618079 12.395567468880401 1.178462290868686 0 0 1
133 45 1 -1.1128 1.7860828106311664 13.561146601867883 6.254001739620094 1 0 0
134 45 2 0.5564 1.5214935554290083 14.30477132431672 5.631920547683841 1 0 0
135 45 2 0.5564 2.1861994506791036 14.062962993975965 6.9443893939140535 1 0 0
136 46 1 -1.1128 1.0823109053764777 7.48170447977467 6.383445475102669 1 0 0
137 46 2 0.5564 1.8522572363601144 6.891354605500803 6.187533464119568 1 0 0
138 46 2 0.5564 1.3075970036639823 8.283801634902243 6.003316011301107 1 0 0
139 47 1 -1.1128 7.797697500140262 12.140281738457924 6.635408351286178 0 0 0
140 47 2 0.5564 8.092598490482851 12.086841854400804 7.566770161318162 0 0 0
141 47 2 0.5564 8.033981773278196 11.241253750392175 6.298150991762185 0 0 0
142 48 1 -1.1128 17.27425307610588 10.806182954587394 6.710081326085009 0 0 0
143 48 2 0.5564 17.55562048760796 10.684381670882583 7.67235517839226 0 0 0
144 48 2 0.5564 16.87427172291667 9.944521280599597 6.474834884083185 0 0 0
145 49 1 -1.1128 18.301301794677162 15.298911985187265 5.043729226370668 0 0 0
146 49 2 0.5564 17.74156641049831 16.041289081315405 4.670773904188172 0 0 0
147 49 2 0.5564 19.220913576790203 15.633386370276016 4.917209142881919 0 0 0
148 50 1 -1.1128 5.060220094456748 10.442159734483228 7.559492713324624 0 0 0
149 50 2 0.5564 5.507869788341712 9.778145743634182 8.060467760523146 0 0 0
150 50 2 0.5564 4.150999701675421 10.413541061640498 7.908554409533887 0 0 0
151 51 1 -1.1128 11.554954947891503 11.419967789750867 1.324297621269718 0 0 1
152 51 2 0.5564 11.137595179702645 11.72667427396637 2.160012539219421 0 0 1
153 51 2 0.5564 10.856999256906244 11.810212118575812 0.7802402580646777 0 0 1
154 52 1 -1.1128 17.022870503131973 13.487875497165515 6.712355090478687 0 0 0
155 52 2 0.5564 17.77155496185855 13.983006141320267 6.388973488485516 0 0 0
156 52 2 0.5564 17.136735233587242 12.634404011856068 6.304022515118801 0 0 0
157 53 1 -1.1128 3.110686102266704 18.66046641962487 4.0010152270583035 0 0 0
158 53 2 0.5564 3.681141973732943 18.610948084353208 3.193930226268349 0 0 0
159 53 2 0.5564 3.6155869505225744 18.495036724310374 4.803448604409193 0 0 0
160 54 1 -1.1128 9.631458729400812 18.30910409372779 7.134775942721977 0 0 0
161 54 2 0.5564 9.466068930273272 17.397965319564076 7.26654713018167 0 0 0
162 54 2 0.5564 10.241928201698865 18.357599253262446 6.402985115958073 0 0 0
163 55 1 -1.1128 11.190149886167918 15.123177021767459 4.629015206184222 0 0 0
164 55 2 0.5564 11.232535848574505 16.120144285329847 4.717084802085055 0 0 0
165 55 2 0.5564 10.2921821267769 14.88897466098152 4.444975171969342 0 0 0
166 56 1 -1.1128 10.84503395895207 17.10974383241241 0.7786407112054711 0 0 1
167 56 2 0.5564 11.595298772926098 17.134426722693856 1.467026520185593 0 0 1
168 56 2 0.5564 11.210952975210118 17.089061333621277 19.586154190846525 0 0 0
169 57 1 -1.1128 17.282491687376147 2.831353805049074 3.1316167976825584 0 1 1
170 57 2 0.5564 17.581373995440693 3.541839508815391 3.675786201961094 0 0 0
171 57 2 0.5564 17.976366261601616 2.1671055494769873 3.129380471698869 0 1 1
172 58 1 -1.1128 6.017164343045353 19.432459067796593 4.231874599320526 0 0 0
173 58 2 0.5564 5.385555144126131 19.599697978751816 3.543615423396586 0 0 0
174 58 2 0.5564 6.289849160685849 18.478283280757555 4.088132486019876 0 0 0
175 59 1 -1.1128 11.73900589761047 17.562807663327167 5.2089328930280745 0 0 0
176 59 2 0.5564 11.70711039258749 18.36455577281802 4.562942360251658 0 0 0
177 59 2 0.5564 12.406499785118582 17.59354035627988 5.913620033885585 0 0 0
178 60 1 -1.1128 11.30454129557914 0.3847260598545377 3.954468740442464 0 1 0
179 60 2 0.5564 11.946058859330842 0.8568613462285898 3.4162893127748433 0 1 0
180 60 2 0.5564 10.765753217088626 1.0519392679188364 4.403444708960958 0 1 0
181 61 1 -1.1128 18.272431191843776 0.5800168291370185 6.484505031104955 0 1 0
182 61 2 0.5564 17.772840964505484 19.43023306773634 6.217877194304041 0 0 0
183 61 2 0.5564 19.153202899532317 0.46050789749067916 6.101116642690208 0 1 0
184 62 1 -1.1128 0.6384975315444131 19.59726276483149 4.391849780998307 1 0 0
185 62 2 0.5564 1.4838711207683926 19.335320556894633 4.024492858648677 1 0 0
186 62 2 0.5564 0.12128052786496259 0.19124189490149754 3.622328892932944 1 1 0
187 63 1 -1.1128 12.981793611305267 2.157185334703549 2.341867232199819 0 1 1
188 63 2 0.5564 12.882688172307429 3.0933885382091098 2.671800796485572 0 1 1
189 63 2 0.5564 13.332382480805396 2.3053788954378374 1.4340346063743719 0 1 1
190 64 1 -1.1128 15.539444251728563 18.16027420931146 5.747764084891421 0 0 0
191 64 2 0.5564 15.137617140586169 19.056778971019483 6.07221230251348 0 0 0
192 64 2 0.5564 15.01204647893078 17.56811001823944 6.281619043189805 0 0 0
193 65 1 -1.1128 16.53712516055189 1.4328010940075935 8.698004891112996 0 1 0
194 65 2 0.5564 17.336584210314005 0.9649495360063938 8.894368635954635 0 1 0
195 65 2 0.5564 16.33622423487457 1.3812494877539934 7.74546070607028 0 1 0
196 66 1 -1.1128 3.458364268879948 19.557991441235945 9.997496017600643 0 0 0
197 66 2 0.5564 3.05588719159177 0.6020070955918105 10.545326149999909 1 1 0
198 66 2 0.5564 2.7865657457591375 19.295622397887108 9.31080780076031 1 0 0
199 67 1 -1.1128 5.874710829053422 5.318940144124316 10.120088235525538 0 0 0
200 67 2 0.5564 5.950450420400247 5.622094673664593 9.197474300139408 0 0 0
201 67 2 0.5564 5.837734186169913 4.347525145561367 10.02732180719457 0 0 0
202 68 1 -1.1128 9.504468763165784 2.260376127664234 5.526332926601754 0 1 0
203 68 2 0.5564 9.029293412791123 1.5117534817702931 5.889428149170895 0 1 0
204 68 2 0.5564 8.844952822622227 2.735734126446202 4.960124235128022 0 1 0
205 69 1 -1.1128 13.805324944507186 6.340202909058374 5.142028330902644 0 0 0
206 69 2 0.5564 14.690871741966548 6.099512476641323 4.870267256602509 0 0 0
207 69 2 0.5564 13.854155595369244 6.184856820791056 6.089393413836227 0 0 0
208 70 1 -1.1128 18.5889031091945 3.746435299181376 7.398822968353722 0 0 0
209 70 2 0.5564 17.94604252155276 3.0461171559918863 7.640366462387794 0 1 0
210 70 2 0.5564 18.085427815222634 4.615253099538361 7.312443246846355 0 0 0
211 71 1 -1.1128 8.535785893799957 5.210652432188297 8.624014156011967 0 0 0
212 71 2 0.5564 8.113608234878875 5.42522880674881 7.776377737799791 0 0 0
213 71 2 0.5564 8.671525712275836 6.015274345179419 9.119541582579476 0 0 0
214 72 1 -1.1128 14.754843750485938 9.027268610092552 7.984081623465084 0 0 0
215 72 2 0.5564 14.233206951202742 9.82004356008978 8.044547375851746 0 0 0
216 72 2 0.5564 14.881992117365074 8.753060892114469 7.061689720435547 0 0 0
217 73 1 -1.1128 19.101982556445872 7.642916708759231 8.901344666886276 0 0 0
218 73 2 0.5564 18.782072072555163 6.880218969750863 9.43823524334541 0 0 0
219 73 2 0.5564 0.31517636487045797 7.409969613540423 8.599170440342514 1 0 0
220 74 1 -1.1128 6.274435890312065 8.528275456826012 9.998384504045621 0 0 0
221 74 2 0.5564 6.54217848809218 8.198819010480143 10.848949385932416 0 0 0
222 74 2 0.5564 5.34399514098479 8.79809081877262 10.189249372851394 0 0 0
223 75 1 -1.1128 11.0972861885459 11.778884415021443 9.732313895326369 0 0 0
224 75 2 0.5564 10.812678872925908 11.001112782381924 10.159375057758878 0 0 0
225 75 2 0.5564 11.590850464275334 12.279739691502513 10.36333077062416 0 0 0
226 76 1 -1.1128 16.265401325188556 11.912107875024939 11.610621344727747 0 0 0
227 76 2 0.5564 16.202072150248682 12.21705977697182 10.670002163871771 0 0 0
228 76 2 0.5564 15.540484866911779 11.264160062132143 11.710438557786576 0 0 0
229 77 1 -1.1128 16.387785399048127 5.932180518820492 4.396332885993798 0 0 0
230 77 2 0.5564 17.086120974692257 6.037103292981683 5.031806852928645 0 0 0
231 77 2 0.5564 16.418878321479582 6.612950297381449 3.7175319465012953 0 0 0
232 78 1 -1.1128 8.724078008141872 13.16087100376185 9.073929024810724 0 0 0
233 78 2 0.5564 8.05423267696159 13.055411421305072 9.762282233505134 0 0 0
234 78 2 0.5564 9.49820014826124 12.751617077147236 9.433870317610582 0 0 0
235 79 1 -1.1128 13.295364838326128 11.522734678743374 8.1237710133308 0 0 0
236 79 2 0.5564 12.557856577192716 11.522006602236745 8.815445724860362 0 0 0
237 79 2 0.5564 13.10660338648368 12.171069881775068 7.445194116217988 0 0 0
238 80 1 -1.1128 15.461885630013391 12.836652601572366 8.961095357937246 0 0 0
239 80 2 0.5564 14.767585456382818 12.153884938067602 8.770475488920162 0 0 0
240 80 2 0.5564 15.966739247292681 12.8983289548096 8.149832928337688 0 0 0
241 81 1 -1.1128 0.16456855748873442 11.722493928645948 5.121829584118868 1 0 0
242 81 2 0.5564 19.017742205948323 11.268367680956533 5.420861718561019 0 0 0
243 81 2 0.5564 0.5566737716983567 12.287844792115061 5.803875821433857 1 0 0
244 82 1 -1.1128 5.8760776546306275 17.167232430854625 9.38808324680017 0 0 0
245 82 2 0.5564 4.957823004318535 17.041939042421458 9.723249889052392 0 0 0
246 82 2 0.5564 5.907066124881336 16.862253281482673 8.472380467452579 0 0 0
247 83 1 -1.1128 10.700115382034882 13.510600325731684 6.984591445674802 0 0 0
248 83 2 0.5564 10.327697670114574 12.636869553538812 6.72830554844689 0 0 0
249 83 2 0.5564 10.82732529398219 14.0167948857 6.156885537305561 0 0 0
250 84 1 -1.1128 19.008132271875702 15.960797571326008 9.26728826832858 0 0 0
251 84 2 0.5564 0.17928382095642706 16.247511481542453 8.786536720427307 1 0 0
252 84 2 0.5564 18.328078912921463 16.48841962826347 8.825524433004013 0 0 0
253 85 1 -1.1128 5.434341348968382 13.405325085189954 6.290465979751809 0 0 0
254 85 2 0.5564 6.020803537691595 12.65452851354535 6.457620721099415 0 0 0
255 85 2 0.5564 4.867726943366679 13.001692485747325 5.553052189681191 0 0 0
256 86 1 -1.1128 10.891721296199567 15.809858381953239 11.12872994285308 0 0 0
257 86 2 0.5564 11.36533141402562 15.64237997833369 10.276576518960956 0 0 0
258 86 2 0.5564 10.009058912051495 16.136834547468904 10.982277395134656 0 0 0
259 87 1 -1.1128 15.115806681259363 17.92965847818047 10.488515936030524 0 0 0
260 87 2 0.5564 15.871724252288915 18.085645598516123 11.117724789629536 0 0 0
261 87 2 0.5564 14.969271886417186 16.96695139637453 10.532075384823278 0 0 0
262 88 1 -1.1128 14.657047971786517 15.276576519060042 6.546029265623887 0 0 0
263 88 2 0.5564 15.492608475844879 14.79616971478987 6.731427110363766 0 0 0
264 88 2 0.5564 14.089616914557663 15.110159606311 7.32946643129669 0 0 0
265 89 1 -1.1128 1.9829321209225814 16.23418595690191 8.449730368110611 1 0 0
266 89 2 0.5564 2.4760071899909546 16.82302808463101 7.839364509976081 1 0 0
267 89 2 0.5564 2.4674424247322384 16.45399263673945 9.296796318659755 1 0 0
268 90 1 -1.1128 1.7279456630027803 15.787159989387687 4.307385666633819 1 0 0
269 90 2 0.5564 2.4730819058918256 15.321493963864398 3.7874122689760847 1 0 0
270 90 2 0.5564 2.202496636237127 16.621954806359202 4.521876968250643 1 0 0
271 91 1 -1.1128 13.08660796416482 17.535582580642945 7.451252122840673 0 0 0
272 91 2 0.5564 12.918638915785753 16.80675446248772 8.021251356930222 0 0 0
273 91 2 0.5564 13.068145932483478 18.32487007851426 8.06203766180812 0 0 0
274 92 1 -1.1128 12.75833737946215 0.81651253922601 8.365140382388894 0 1 0
275 92 2 0.5564 13.053875080583163 1.1220082277835812 9.241915838910646 0 1 0
276 92 2 0.5564 11.793125545021834 0.7207503055167548 8.462093679079507 0 1 0
277 93 1 -1.1128 0.4528422482365155 16.898003849778984 11.60252991747896 1 0 0
278 93 2 0.5564 0.6165816811807799 17.702988477083515 12.125471187417885 1 0 0
279 93 2 0.5564 0.10656202081507359 17.137192697139362 10.729904591496771 1 0 0
280 94 1 -1.1128 6.188013695481296 3.303917203993154 5.857001018291613 0 1 0
281 94 2 0.5564 6.559617883659182 2.50042155882227 6.232756277364683 0 1 0
282 94 2 0.5564 6.5949278913680836 3.4215735767483344 4.986610853447099 0 1 0
283 95 1 -1.1128 6.4371469995478074 6.075901412976274 6.589196994565275 0 0 0
284 95 2 0.5564 6.609214104206071 5.795183243125581 5.645981950738498 0 0 0
285 95 2 0.5564 6.215582398028842 6.996837538849529 6.4513792613420735 0 0 0
286 96 1 -1.1128 14.84177751878674 0.8827668708104703 6.32351351474163 0 1 0
287 96 2 0.5564 13.99871961888308 0.911729688114311 6.809836591484116 0 1 0
288 96 2 0.5564 14.888950552378443 1.3635775006278392 5.480768759370639 0 1 0
289 97 1 -1.1128 14.246863296946527 18.172873535939296 13.72554875447028 0 0 0
290 97 2 0.5564 14.232150424175787 18.907334145033225 13.140704893084214 0 0 0
291 97 2 0.5564 15.157226590006918 17.729435896345716 13.60613862158807 0 0 0
292 98 1 -1.1128 18.576330599642297 19.434068159796087 9.730515671639127 0 0 0
293 98 2 0.5564 17.98015320202685 18.796664998390042 9.339049760303968 0 0 0
294 98 2 0.5564 18.17518813801763 19.57615729223931 10.592450575098704 0 0 0
295 99 1 -1.1128 7.9922929655214 2.4768114706510125 9.73439735100611 0 1 0
296 99 2 0.5564 8.181088163650573 3.317341560564531 9.262312688084416 0 0 0
297 99 2 0.5564 7.045866158146173 2.4152693370724507 9.841548985047622 0 1 0
298 100 1 -1.1128 10.86952661929002 4.433976284284776 6.655352773636567 0 0 0
299 100 2 0.5564 10.572328671072816 4.705483454574866 7.494557036695773 0 0 0
300 100 2 0.5564 10.602618120826858 3.504062671718168 6.519943823487684 0 0 0
301 101 1 -1.1128 15.219209885824526 2.294155881641468 12.692649981047394 0 1 0
302 101 2 0.5564 16.061812098063832 2.150676415074982 12.208925847442195 0 1 0
303 101 2 0.5564 14.569649364564459 1.677766490812675 12.27601207750971 0 1 0
304 102 1 -1.1128 1.1313088927979253 2.541144932590035 8.590894195986362 1 1 0
305 102 2 0.5564 0.9104406011138929 2.1080749443965527 9.385009316203751 1 1 0
306 102 2 0.5564 0.30823990324757067 2.9537835180471794 8.304167230750586 1 1 0
307 103 1 -1.1128 8.98245521296968 8.015527146101428 9.518195607832064 0 0 0
308 103 2 0.5564 8.085213447098974 8.39140237199527 9.541245405003199 0 0 0
309 103 2 0.5564 9.410459242949786 8.469480742009695 10.2200812627401 0 0 0
310 104 1 -1.1128 15.364852334109715 8.035840853909873 10.496736084370044 0 0 0
311 104 2 0.5564 15.375349215020586 8.21206051100112 9.51410161614294 0 0 0
312 104 2 0.5564 16.20625886603756 7.700503387749348 10.748596263461387 0 0 0
313 105 1 -1.1128 17.78200557860579 6.642417642440103 6.710561204453667 0 0 0
314 105 2 0.5564 18.711396034957463 6.9834800662778935 6.665627084100754 0 0 0
315 105 2 0.5564 17.47843230183144 7.167249524585199 7.435590999805036 0 0 0
316 106 1 -1.1128 3.320710646442246 6.489473153339731 10.292315881833638 0 0 0
317 106 2 0.5564 3.3910630471641507 7.422568962939639 10.56011607678748 0 0 0
318 106 2 0.5564 4.256061159210074 6.16729136126212 10.313077661835909 0 0 0
319 107 1 -1.1128 15.60778532276144 5.109473150068516 13.527962940229875 0 0 0
320 107 2 0.5564 15.463392824710986 4.192418392474358 13.258658428817759 0 0 0
321 107 2 0.5564 14.998831593900583 5.138093323591507 14.308097762266735 0 0 0
322 108 1 -1.1128 13.448074490154413 6.610042288953517 12.127832103859825 0 0 0
323 108 2 0.5564 14.245503071570885 6.072926586577746 12.192852158159056 0 0 0
324 108 2 0.5564 13.717974253589803 7.427118148599465 11.659814823634038 0 0 0
325 109 1 -1.1128 17.897796022162613 1.9015232166041638 11.764515324114527 0 1 0
326 109 2 0.5564 18.741379690869476 2.464958800162277 11.831165913591214 0 1 0
327 109 2 0.5564 17.502916520423945 2.3608721932437278 10.9679076688142 0 1 0
328 110 1 -1.1128 3.5292952393019594 9.321515346535225 10.258490494584914 0 0 0
329 110 2 0.5564 2.9397991588213803 9.843610133498071 9.734515035149593 1 0 0
330 110 2 0.5564 3.591248141127281 9.814616914279714 11.137666894793696 0 0 0
331 111 1 -1.1128 12.617393693016549 9.128744334464008 10.66424329298976 0 0 0
332 111 2 0.5564 11.764908653637567 9.354942073415824 10.969416223897921 0 0 0
333 111 2 0.5564 12.41673113695938 8.80857476389821 9.7526580788049 0 0 0
334 112 1 -1.1128 18.089552344171473 10.29771402438685 9.262027410048248 0 0 0
335 112 2 0.5564 17.62771339361304 10.3515651615357 10.141150849298882 0 0 0
336 112 2 0.5564 18.361502500279034 9.391152375377901 9.083004330559984 0 0 0
337 113 1 -1.1128 0.3207872451239471 3.8446315520307413 12.611321280168124 1 0 0
338 113 2 0.5564 1.0705623841472949 3.9486215671664096 12.064384833000696 1 0 0
339 113 2 0.5564 19.64665128496447 4.802821657639679 12.645914945753969 0 0 0
340 114 1 -1.1128 1.6484176454847994 13.39250642941946 9.158673821162166 1 0 0
341 114 2 0.5564 1.525922659591993 14.242840217261447 8.714910619853924 1 0 0
342 114 2 0.5564 0.7991723570904861 13.256675597317708 9.527985976842272 1 0 0
343 115 1 -1.1128 15.544979148452116 15.242331344270243 10.674626782848076 0 0 0
344 115 2 0.5564 16.358735762705273 15.140463706246504 11.203003608944835 0 0 0
345 115 2 0.5564 15.7548202837819 14.711781713616661 9.889370680899244 0 0 0
346 116 1 -1.1128 19.04977630246498 12.833492957644939 10.16536131835206 0 0 0
347 116 2 0.5564 18.654493206746377 12.1490934055807 9.646977659181351 0 0 0
348 116 2 0.5564 18.307758448078282 13.334175470199305 10.56207516542082 0 0 0
349 117 1 -1.1128 6.447260281968383 15.928496234819262 6.577850455475986 0 0 0
350 117 2 0.5564 6.073348291912458 15.024957025897042 6.489389253619158 0 0 0
351 117 2 0.5564 7.249469750510038 15.763333613934732 7.10529054551433 0 0 0
352 118 1 -1.1128 7.586156065395283 15.887312099957457 10.891736713313207 0 0 0
353 118 2 0.5564 7.50169172400629 14.998782643869049 11.375745421562485 0 0 0
354 118 2 0.5564 6.781519037721769 16.0583285752283 10.369778217097483 0 0 0
355 119 1 -1.1128 12.531826676137467 14.902847171517008 8.737259942015887 0 0 0
356 119 2 0.5564 11.959100571014263 14.304809351804897 8.219705780478789 0 0 0
357 119 2 0.5564 13.156815137005195 14.4015328822765 9.2872717188055 0 0 0
358 120 1 -1.1128 17.97335057318218 14.829264352040086 12.079462609713907 0 0 0
359 120 2 0.5564 17.644280570077164 15.35239686567984 12.82885039711893 0 0 0
360 120 2 0.5564 18.77155992138239 15.319741089631147 11.83781960454078 0 0 0
361 121 1 -1.1128 12.99363548303005 15.64673823006829 12.95949329014814 0 0 0
362 121 2 0.5564 12.258467425528934 15.922995832999046 12.381796510851437 0 0 0
363 121 2 0.5564 13.417170505019994 16.456968406907706 13.169639668640984 0 0 0
364 122 1 -1.1128 3.9361327643230797 17.652073867321644 6.742208067950657 0 0 0
365 122 2 0.5564 4.212253927112669 18.53775782577811 7.05520678307543 0 0 0
366 122 2 0.5564 4.7431617188907635 17.112048413620034 6.698375730694173 0 0 0
367 123 1 -1.1128 3.8788501573084355 0.8103579162848504 7.273298977368782 0 1 0
368 123 2 0.5564 3.970608147062716 0.6219498392484554 8.231188610525718 0 1 0
369 123 2 0.5564 4.621355625426211 1.3451630023560301 7.06082477015631 0 1 0
370 124 1 -1.1128 13.895860343716329 0.38268466754321456 11.521769417808363 0 1 0
371 124 2 0.5564 12.95588641442232 0.061201796420168444 11.59426556368175 0 1 0
372 124 2 0.5564 14.180377129769509 19.44069815727285 10.803482449463756 0 0 0
373 125 1 -1.1128 13.998368931826834 19.598520880431952 19.117308156403922 0 0 0
374 125 2 0.5564 14.616692958335925 19.444619377474517 18.440129499353265 0 0 0
375 125 2 0.5564 13.089177909691958 19.394120955363103 18.78958413157934 0 0 0
376 126 1 -1.1128 3.8977229599691636 17.202427474750777 11.412669187685461 0 0 0
377 126 2 0.5564 3.6096850288299365 18.165072223873587 11.45424312284755 0 0 0
378 126 2 0.5564 4.23600117130722 16.963046713416002 12.25162102805256 0 0 0
379 127 1 -1.1128 6.595944226182597 0.10940244833921973 10.309044802919336 0 1 0
380 127 2 0.5564 6.7928245104627525 18.79339701834559 10.265024168311479 0 0 0
381 127 2 0.5564 7.492103211570682 0.5080708723855076 10.306352225291922 0 1 0
382 128 1 -1.1128 7.4440488639274704 0.6171527621065157 6.688338147446831 0 1 0